# Solver information
# Time        	H2_solver     	H2_initial    	H2_final      	H2_iters      	H2_converged  	epsilon_solver	epsilon_initial	epsilon_final 	epsilon_iters 	epsilon_converged	h_solver      	h_initial     	h_final       	h_iters       	h_converged   	k_solver      	k_initial     	k_final       	k_iters       	k_converged   
0.0633453     	DILUPBiCGStab	2.764230e-06	1.826250e-07	1	true	DILUPBiCGStab	9.137990e-06	4.868840e-07	1	true	DILUPBiCGStab	8.743130e-04	3.367320e-07	1	true	DILUPBiCGStab	1.423000e-05	7.241580e-07	1	true
0.121312      	DILUPBiCGStab	3.672450e-06	9.243030e-08	1	true	DILUPBiCGStab	3.923440e-06	8.944870e-08	1	true	DILUPBiCGStab	1.151150e-04	1.589500e-07	1	true	DILUPBiCGStab	6.066350e-06	1.343440e-07	1	true
0.174376      	DILUPBiCGStab	3.368550e-06	3.658260e-08	1	true	DILUPBiCGStab	3.715030e-06	4.481150e-08	1	true	DILUPBiCGStab	2.441870e-04	4.444030e-08	1	true	DILUPBiCGStab	6.373910e-06	8.212240e-08	1	true
0.229654      	DILUPBiCGStab	3.939600e-06	2.196570e-08	1	true	DILUPBiCGStab	3.506940e-06	2.307260e-08	1	true	DILUPBiCGStab	1.485030e-04	2.901930e-08	1	true	DILUPBiCGStab	9.241150e-06	5.466130e-08	1	true
0.286566      	DILUPBiCGStab	4.167680e-06	3.729510e-08	1	true	DILUPBiCGStab	3.227040e-06	3.007070e-08	1	true	DILUPBiCGStab	1.391390e-04	5.380520e-08	1	true	DILUPBiCGStab	1.110180e-05	9.215060e-08	1	true
0.34335       	DILUPBiCGStab	4.046020e-06	3.329560e-08	1	true	DILUPBiCGStab	2.786080e-06	2.582220e-08	1	true	DILUPBiCGStab	1.215740e-04	4.484770e-08	1	true	DILUPBiCGStab	1.218140e-05	9.610680e-08	1	true
0.400094      	DILUPBiCGStab	3.865230e-06	3.025270e-08	1	true	DILUPBiCGStab	2.373520e-06	1.935120e-08	1	true	DILUPBiCGStab	6.742890e-05	4.425220e-08	1	true	DILUPBiCGStab	1.259490e-05	8.434960e-08	1	true
0.456883      	DILUPBiCGStab	3.696930e-06	2.105030e-08	1	true	DILUPBiCGStab	2.050650e-06	1.348820e-08	1	true	DILUPBiCGStab	9.401470e-05	2.890280e-08	1	true	DILUPBiCGStab	1.273030e-05	6.050860e-08	1	true
0.513715      	DILUPBiCGStab	3.557710e-06	2.821950e-08	1	true	DILUPBiCGStab	1.676150e-06	1.482370e-08	1	true	DILUPBiCGStab	2.794810e-05	8.447860e-08	1	true	DILUPBiCGStab	1.247400e-05	9.232220e-08	1	true
0.570568      	DILUPBiCGStab	3.447610e-06	1.666260e-08	1	true	DILUPBiCGStab	1.448140e-06	1.012010e-08	1	true	DILUPBiCGStab	6.885220e-05	2.367420e-08	1	true	DILUPBiCGStab	1.282970e-05	5.584050e-08	1	true
0.627448      	DILUPBiCGStab	3.358040e-06	1.261230e-08	1	true	DILUPBiCGStab	1.320950e-06	7.005650e-09	1	true	DILUPBiCGStab	7.922190e-06	1.502280e-08	1	true	DILUPBiCGStab	1.345310e-05	3.677170e-08	1	true
0.684358      	DILUPBiCGStab	3.274810e-06	9.354420e-09	1	true	DILUPBiCGStab	1.228290e-06	5.664700e-09	1	true	DILUPBiCGStab	4.859400e-05	1.389530e-08	1	true	DILUPBiCGStab	1.399880e-05	2.846000e-08	1	true
0.74128       	DILUPBiCGStab	3.201120e-06	1.152920e-08	1	true	DILUPBiCGStab	1.151750e-06	6.744450e-09	1	true	DILUPBiCGStab	7.864710e-06	1.547940e-08	1	true	DILUPBiCGStab	1.442170e-05	4.833650e-08	1	true
0.798204      	DILUPBiCGStab	3.126510e-06	1.301190e-08	1	true	DILUPBiCGStab	1.083340e-06	7.857910e-09	1	true	DILUPBiCGStab	3.263530e-05	2.683270e-08	1	true	DILUPBiCGStab	1.480650e-05	6.521270e-08	1	true
0.855133      	DILUPBiCGStab	3.067820e-06	1.066660e-08	1	true	DILUPBiCGStab	1.028070e-06	5.470260e-09	1	true	DILUPBiCGStab	1.112330e-05	1.692390e-08	1	true	DILUPBiCGStab	1.517760e-05	3.820030e-08	1	true
0.912069      	DILUPBiCGStab	3.005280e-06	9.280990e-09	1	true	DILUPBiCGStab	1.006660e-06	4.807330e-09	1	true	DILUPBiCGStab	2.145460e-05	1.483850e-08	1	true	DILUPBiCGStab	1.573100e-05	3.067020e-08	1	true
0.969008      	DILUPBiCGStab	2.940450e-06	7.799170e-09	1	true	DILUPBiCGStab	1.005330e-06	4.811470e-09	1	true	DILUPBiCGStab	1.146450e-05	1.268420e-08	1	true	DILUPBiCGStab	1.643030e-05	2.775130e-08	1	true
1.02595       	DILUPBiCGStab	2.868000e-06	7.193200e-09	1	true	DILUPBiCGStab	1.003050e-06	4.637900e-09	1	true	DILUPBiCGStab	1.373610e-05	1.265670e-08	1	true	DILUPBiCGStab	1.730450e-05	2.591230e-08	1	true
1.08289       	DILUPBiCGStab	2.779980e-06	7.233120e-09	1	true	DILUPBiCGStab	1.008000e-06	4.216050e-09	1	true	DILUPBiCGStab	1.024610e-05	1.374180e-08	1	true	DILUPBiCGStab	1.855720e-05	2.889100e-08	1	true
1.13983       	DILUPBiCGStab	2.672420e-06	7.831190e-09	1	true	DILUPBiCGStab	1.003740e-06	4.207420e-09	1	true	DILUPBiCGStab	8.746700e-06	1.553410e-08	1	true	DILUPBiCGStab	2.017660e-05	3.783440e-08	1	true
1.19677       	DILUPBiCGStab	2.539870e-06	9.230650e-09	1	true	DILUPBiCGStab	9.942020e-07	9.942020e-07	0	true	DILUPBiCGStab	8.587650e-06	1.871090e-08	1	true	DILUPBiCGStab	2.233260e-05	6.278230e-08	1	true
1.25372       	DILUPBiCGStab	2.396280e-06	1.053310e-08	1	true	DILUPBiCGStab	1.009700e-06	4.909330e-09	1	true	DILUPBiCGStab	5.407920e-06	1.898060e-08	1	true	DILUPBiCGStab	2.168630e-05	8.345890e-08	1	true
1.31066       	DILUPBiCGStab	2.272190e-06	1.028980e-08	1	true	DILUPBiCGStab	1.006570e-06	4.842640e-09	1	true	DILUPBiCGStab	6.764030e-06	1.865230e-08	1	true	DILUPBiCGStab	1.880250e-05	7.650720e-08	1	true
1.36761       	DILUPBiCGStab	2.165670e-06	1.138320e-08	1	true	DILUPBiCGStab	1.013100e-06	5.919680e-09	1	true	DILUPBiCGStab	3.496450e-06	1.543280e-08	1	true	DILUPBiCGStab	1.816540e-05	9.957490e-08	1	true
1.42456       	DILUPBiCGStab	2.080070e-06	1.359020e-08	1	true	DILUPBiCGStab	1.003600e-06	6.013910e-09	1	true	DILUPBiCGStab	5.344330e-06	2.107070e-08	1	true	DILUPBiCGStab	1.905710e-05	1.482930e-07	1	true
1.48152       	DILUPBiCGStab	2.004130e-06	1.658280e-08	1	true	DILUPBiCGStab	9.950250e-07	9.950250e-07	0	true	DILUPBiCGStab	2.327510e-06	1.804700e-08	1	true	DILUPBiCGStab	1.945170e-05	2.254530e-07	1	true
1.53847       	DILUPBiCGStab	1.964960e-06	1.960390e-08	1	true	DILUPBiCGStab	1.013350e-06	9.957720e-09	1	true	DILUPBiCGStab	4.145820e-06	2.893190e-08	1	true	DILUPBiCGStab	1.940910e-05	3.087760e-07	1	true
1.59542       	DILUPBiCGStab	1.892920e-06	1.976940e-08	1	true	DILUPBiCGStab	9.879130e-07	9.879130e-07	0	true	DILUPBiCGStab	2.031500e-06	2.030900e-08	1	true	DILUPBiCGStab	1.864720e-05	3.702610e-07	1	true
1.65238       	DILUPBiCGStab	1.794420e-06	2.114560e-08	1	true	DILUPBiCGStab	1.014580e-06	1.252080e-08	1	true	DILUPBiCGStab	3.266020e-06	2.565420e-08	1	true	DILUPBiCGStab	1.741850e-05	4.126570e-07	1	true
1.70935       	DILUPBiCGStab	1.691110e-06	2.256130e-08	1	true	DILUPBiCGStab	1.007510e-06	1.262210e-08	1	true	DILUPBiCGStab	2.049650e-06	2.373990e-08	1	true	DILUPBiCGStab	1.596360e-05	4.169230e-07	1	true
1.76634       	DILUPBiCGStab	1.597910e-06	2.556250e-08	1	true	DILUPBiCGStab	1.001170e-06	1.268820e-08	1	true	DILUPBiCGStab	2.483460e-06	3.039070e-08	1	true	DILUPBiCGStab	1.526740e-05	4.541570e-07	1	true
1.82332       	DILUPBiCGStab	1.516930e-06	2.704220e-08	1	true	DILUPBiCGStab	9.601660e-07	9.601660e-07	0	true	DILUPBiCGStab	1.881140e-06	2.899600e-08	1	true	DILUPBiCGStab	1.438540e-05	4.503700e-07	1	true
1.8803        	DILUPBiCGStab	1.459900e-06	2.694490e-08	1	true	DILUPBiCGStab	9.709670e-07	9.709670e-07	0	true	DILUPBiCGStab	2.023400e-06	2.936270e-08	1	true	DILUPBiCGStab	1.347260e-05	4.220230e-07	1	true
1.93725       	DILUPBiCGStab	1.439460e-06	2.799520e-08	1	true	DILUPBiCGStab	9.494580e-07	9.494580e-07	0	true	DILUPBiCGStab	1.847510e-06	3.030550e-08	1	true	DILUPBiCGStab	1.273870e-05	3.943420e-07	1	true
1.99424       	DILUPBiCGStab	1.407860e-06	2.674980e-08	1	true	DILUPBiCGStab	9.644790e-07	9.644790e-07	0	true	DILUPBiCGStab	1.704490e-06	2.877870e-08	1	true	DILUPBiCGStab	1.201460e-05	3.610960e-07	1	true
2.05123       	DILUPBiCGStab	1.396550e-06	3.050790e-08	1	true	DILUPBiCGStab	9.648010e-07	9.648010e-07	0	true	DILUPBiCGStab	1.693950e-06	3.089690e-08	1	true	DILUPBiCGStab	1.131280e-05	3.322770e-07	1	true
2.10821       	DILUPBiCGStab	1.403240e-06	2.750600e-08	1	true	DILUPBiCGStab	9.792300e-07	9.792300e-07	0	true	DILUPBiCGStab	1.565430e-06	2.815710e-08	1	true	DILUPBiCGStab	1.089510e-05	3.212760e-07	1	true
2.16522       	DILUPBiCGStab	1.401470e-06	2.726700e-08	1	true	DILUPBiCGStab	1.000030e-06	2.217510e-08	1	true	DILUPBiCGStab	1.683430e-06	2.864330e-08	1	true	DILUPBiCGStab	1.049200e-05	3.092960e-07	1	true
2.22222       	DILUPBiCGStab	1.408300e-06	2.498150e-08	1	true	DILUPBiCGStab	1.010300e-06	2.400990e-08	1	true	DILUPBiCGStab	1.513550e-06	2.473650e-08	1	true	DILUPBiCGStab	1.026750e-05	2.820640e-07	1	true
2.27911       	DILUPBiCGStab	1.449440e-06	2.618660e-08	1	true	DILUPBiCGStab	9.943460e-07	9.943460e-07	0	true	DILUPBiCGStab	1.655920e-06	2.767510e-08	1	true	DILUPBiCGStab	9.944530e-06	2.565470e-07	1	true
2.33612       	DILUPBiCGStab	1.476760e-06	2.516440e-08	1	true	DILUPBiCGStab	1.013130e-06	1.666130e-08	1	true	DILUPBiCGStab	1.564560e-06	2.527240e-08	1	true	DILUPBiCGStab	9.812880e-06	2.433860e-07	1	true
2.39313       	DILUPBiCGStab	1.509540e-06	2.257330e-08	1	true	DILUPBiCGStab	1.014240e-06	1.630820e-08	1	true	DILUPBiCGStab	1.666140e-06	2.220320e-08	1	true	DILUPBiCGStab	9.762570e-06	2.254550e-07	1	true
2.45005       	DILUPBiCGStab	1.571300e-06	2.398110e-08	1	true	DILUPBiCGStab	9.717650e-07	9.717650e-07	0	true	DILUPBiCGStab	1.673390e-06	2.425590e-08	1	true	DILUPBiCGStab	1.027140e-05	2.132840e-07	1	true
2.50705       	DILUPBiCGStab	1.640120e-06	2.079120e-08	1	true	DILUPBiCGStab	1.002910e-06	1.647480e-08	1	true	DILUPBiCGStab	1.784980e-06	2.077730e-08	1	true	DILUPBiCGStab	1.053110e-05	2.043920e-07	1	true
2.56403       	DILUPBiCGStab	1.701320e-06	2.018800e-08	1	true	DILUPBiCGStab	1.003690e-06	1.670930e-08	1	true	DILUPBiCGStab	1.810130e-06	2.002420e-08	1	true	DILUPBiCGStab	1.088580e-05	1.924170e-07	1	true
2.62095       	DILUPBiCGStab	1.757450e-06	1.933680e-08	1	true	DILUPBiCGStab	1.003140e-06	1.553570e-08	1	true	DILUPBiCGStab	1.846720e-06	1.886980e-08	1	true	DILUPBiCGStab	1.155020e-05	1.819300e-07	1	true
2.67794       	DILUPBiCGStab	1.802280e-06	2.024640e-08	1	true	DILUPBiCGStab	9.623310e-07	9.623310e-07	0	true	DILUPBiCGStab	1.892680e-06	2.011890e-08	1	true	DILUPBiCGStab	1.181540e-05	1.779350e-07	1	true
2.73492       	DILUPBiCGStab	1.855100e-06	2.197890e-08	1	true	DILUPBiCGStab	9.810280e-07	9.810280e-07	0	true	DILUPBiCGStab	1.962040e-06	2.213570e-08	1	true	DILUPBiCGStab	1.235970e-05	1.801940e-07	1	true
2.79187       	DILUPBiCGStab	1.897930e-06	2.175500e-08	1	true	DILUPBiCGStab	1.031530e-06	1.724810e-08	1	true	DILUPBiCGStab	2.033560e-06	2.240720e-08	1	true	DILUPBiCGStab	1.328080e-05	1.740290e-07	1	true
2.84886       	DILUPBiCGStab	1.903650e-06	1.910530e-08	1	true	DILUPBiCGStab	1.025980e-06	1.365870e-08	1	true	DILUPBiCGStab	1.997950e-06	1.909880e-08	1	true	DILUPBiCGStab	1.309100e-05	1.608580e-07	1	true
2.90578       	DILUPBiCGStab	1.926220e-06	1.951580e-08	1	true	DILUPBiCGStab	1.006680e-06	1.295250e-08	1	true	DILUPBiCGStab	2.019380e-06	1.973390e-08	1	true	DILUPBiCGStab	1.363730e-05	1.553910e-07	1	true
2.96277       	DILUPBiCGStab	1.963180e-06	2.219870e-08	1	true	DILUPBiCGStab	9.863450e-07	9.863450e-07	0	true	DILUPBiCGStab	2.054080e-06	2.224950e-08	1	true	DILUPBiCGStab	1.404980e-05	1.500970e-07	1	true
3.01973       	DILUPBiCGStab	1.996400e-06	1.801050e-08	1	true	DILUPBiCGStab	1.002160e-06	1.116810e-08	1	true	DILUPBiCGStab	2.110170e-06	1.823630e-08	1	true	DILUPBiCGStab	1.344050e-05	1.434720e-07	1	true
3.07665       	DILUPBiCGStab	2.081450e-06	1.842370e-08	1	true	DILUPBiCGStab	9.904500e-07	9.904500e-07	0	true	DILUPBiCGStab	2.197540e-06	1.849840e-08	1	true	DILUPBiCGStab	1.361600e-05	1.403470e-07	1	true
3.13364       	DILUPBiCGStab	2.155840e-06	2.031100e-08	1	true	DILUPBiCGStab	1.008130e-06	1.133450e-08	1	true	DILUPBiCGStab	2.262810e-06	2.060220e-08	1	true	DILUPBiCGStab	1.381380e-05	1.413310e-07	1	true
3.19062       	DILUPBiCGStab	2.196890e-06	1.767490e-08	1	true	DILUPBiCGStab	1.015250e-06	1.244230e-08	1	true	DILUPBiCGStab	2.289680e-06	1.756880e-08	1	true	DILUPBiCGStab	1.360140e-05	1.378240e-07	1	true
3.24753       	DILUPBiCGStab	2.201370e-06	1.843310e-08	1	true	DILUPBiCGStab	9.935440e-07	9.935440e-07	0	true	DILUPBiCGStab	2.305250e-06	1.847640e-08	1	true	DILUPBiCGStab	1.307770e-05	1.327080e-07	1	true
3.30449       	DILUPBiCGStab	2.194400e-06	1.755370e-08	1	true	DILUPBiCGStab	1.000060e-06	1.214550e-08	1	true	DILUPBiCGStab	2.297680e-06	1.757210e-08	1	true	DILUPBiCGStab	1.232820e-05	1.299280e-07	1	true
3.36145       	DILUPBiCGStab	2.160220e-06	1.761710e-08	1	true	DILUPBiCGStab	9.940710e-07	9.940710e-07	0	true	DILUPBiCGStab	2.260780e-06	1.762050e-08	1	true	DILUPBiCGStab	1.167160e-05	1.308520e-07	1	true
3.41843       	DILUPBiCGStab	2.145110e-06	1.806880e-08	1	true	DILUPBiCGStab	9.639780e-07	9.639780e-07	0	true	DILUPBiCGStab	2.255590e-06	1.835540e-08	1	true	DILUPBiCGStab	1.153440e-05	1.326920e-07	1	true
3.47539       	DILUPBiCGStab	2.144680e-06	1.915960e-08	1	true	DILUPBiCGStab	9.499920e-07	9.499920e-07	0	true	DILUPBiCGStab	2.244970e-06	1.924970e-08	1	true	DILUPBiCGStab	1.146130e-05	1.339520e-07	1	true
3.53236       	DILUPBiCGStab	2.144640e-06	1.692490e-08	1	true	DILUPBiCGStab	9.563500e-07	9.563500e-07	0	true	DILUPBiCGStab	2.260290e-06	1.696980e-08	1	true	DILUPBiCGStab	1.120640e-05	1.319920e-07	1	true
3.58928       	DILUPBiCGStab	2.145120e-06	1.873390e-08	1	true	DILUPBiCGStab	1.016440e-06	2.450110e-08	1	true	DILUPBiCGStab	2.275770e-06	1.914560e-08	1	true	DILUPBiCGStab	1.059770e-05	1.245470e-07	1	true
3.64628       	DILUPBiCGStab	2.159500e-06	1.769550e-08	1	true	DILUPBiCGStab	1.005530e-06	1.996210e-08	1	true	DILUPBiCGStab	2.272980e-06	1.770960e-08	1	true	DILUPBiCGStab	1.039580e-05	1.220510e-07	1	true
3.70319       	DILUPBiCGStab	2.144290e-06	1.819680e-08	1	true	DILUPBiCGStab	1.015690e-06	2.302010e-08	1	true	DILUPBiCGStab	2.270740e-06	1.841680e-08	1	true	DILUPBiCGStab	1.004690e-05	1.162380e-07	1	true
3.76016       	DILUPBiCGStab	2.122290e-06	1.540660e-08	1	true	DILUPBiCGStab	1.002710e-06	1.764850e-08	1	true	DILUPBiCGStab	2.233550e-06	1.522550e-08	1	true	DILUPBiCGStab	9.798150e-06	1.134450e-07	1	true
3.81706       	DILUPBiCGStab	2.091470e-06	1.659890e-08	1	true	DILUPBiCGStab	9.887940e-07	9.887940e-07	0	true	DILUPBiCGStab	2.196250e-06	1.683260e-08	1	true	DILUPBiCGStab	9.662950e-06	1.134030e-07	1	true
3.87403       	DILUPBiCGStab	2.067120e-06	1.591640e-08	1	true	DILUPBiCGStab	9.366250e-07	9.366250e-07	0	true	DILUPBiCGStab	2.177320e-06	1.592010e-08	1	true	DILUPBiCGStab	9.576700e-06	1.118820e-07	1	true
3.93091       	DILUPBiCGStab	2.070010e-06	1.658820e-08	1	true	DILUPBiCGStab	9.467820e-07	9.467820e-07	0	true	DILUPBiCGStab	2.195930e-06	1.677260e-08	1	true	DILUPBiCGStab	9.599460e-06	1.102240e-07	1	true
3.98787       	DILUPBiCGStab	2.041930e-06	1.577000e-08	1	true	DILUPBiCGStab	9.696480e-07	9.696480e-07	0	true	DILUPBiCGStab	2.174040e-06	1.608890e-08	1	true	DILUPBiCGStab	9.695650e-06	1.075060e-07	1	true
4.04474       	DILUPBiCGStab	2.009830e-06	1.451160e-08	1	true	DILUPBiCGStab	9.381000e-07	9.381000e-07	0	true	DILUPBiCGStab	2.126130e-06	1.447980e-08	1	true	DILUPBiCGStab	9.645680e-06	1.062000e-07	1	true
4.10169       	DILUPBiCGStab	1.962730e-06	1.627990e-08	1	true	DILUPBiCGStab	9.603540e-07	9.603540e-07	0	true	DILUPBiCGStab	2.085110e-06	1.645580e-08	1	true	DILUPBiCGStab	9.653890e-06	1.041590e-07	1	true
4.15857       	DILUPBiCGStab	1.937140e-06	1.732440e-08	1	true	DILUPBiCGStab	9.835360e-07	9.835360e-07	0	true	DILUPBiCGStab	2.067590e-06	1.792880e-08	1	true	DILUPBiCGStab	9.572990e-06	1.018940e-07	1	true
4.21549       	DILUPBiCGStab	1.897870e-06	1.581260e-08	1	true	DILUPBiCGStab	9.296060e-07	9.296060e-07	0	true	DILUPBiCGStab	2.004350e-06	1.569530e-08	1	true	DILUPBiCGStab	9.514770e-06	1.007830e-07	1	true
4.27235       	DILUPBiCGStab	1.893400e-06	1.569980e-08	1	true	DILUPBiCGStab	9.471660e-07	9.471660e-07	0	true	DILUPBiCGStab	2.031130e-06	1.599140e-08	1	true	DILUPBiCGStab	9.700170e-06	9.690620e-08	1	true
4.32918       	DILUPBiCGStab	1.877880e-06	1.519340e-08	1	true	DILUPBiCGStab	9.820110e-07	9.820110e-07	0	true	DILUPBiCGStab	1.991300e-06	1.515930e-08	1	true	DILUPBiCGStab	9.667200e-06	9.591170e-08	1	true
4.386         	DILUPBiCGStab	1.854800e-06	1.518740e-08	1	true	DILUPBiCGStab	1.003970e-06	1.684700e-08	1	true	DILUPBiCGStab	1.959330e-06	1.517570e-08	1	true	DILUPBiCGStab	9.602530e-06	9.684170e-08	1	true
4.44287       	DILUPBiCGStab	1.855350e-06	1.546080e-08	1	true	DILUPBiCGStab	9.537430e-07	9.537430e-07	0	true	DILUPBiCGStab	1.978640e-06	1.559670e-08	1	true	DILUPBiCGStab	9.734790e-06	9.759860e-08	1	true
4.49971       	DILUPBiCGStab	1.871020e-06	1.473400e-08	1	true	DILUPBiCGStab	9.585500e-07	9.585500e-07	0	true	DILUPBiCGStab	1.992480e-06	1.489720e-08	1	true	DILUPBiCGStab	1.005870e-05	9.797200e-08	1	true
4.55646       	DILUPBiCGStab	1.900940e-06	1.593540e-08	1	true	DILUPBiCGStab	9.504870e-07	9.504870e-07	0	true	DILUPBiCGStab	2.021040e-06	1.601550e-08	1	true	DILUPBiCGStab	1.031190e-05	9.860530e-08	1	true
4.61311       	DILUPBiCGStab	1.958900e-06	1.573820e-08	1	true	DILUPBiCGStab	1.008210e-06	1.790200e-08	1	true	DILUPBiCGStab	2.081010e-06	1.592940e-08	1	true	DILUPBiCGStab	1.040210e-05	9.648550e-08	1	true
4.66974       	DILUPBiCGStab	2.047120e-06	1.609550e-08	1	true	DILUPBiCGStab	1.024050e-06	1.801540e-08	1	true	DILUPBiCGStab	2.165980e-06	1.613560e-08	1	true	DILUPBiCGStab	1.044090e-05	9.743400e-08	1	true
4.72656       	DILUPBiCGStab	2.114610e-06	1.355360e-08	1	true	DILUPBiCGStab	1.005020e-06	1.475550e-08	1	true	DILUPBiCGStab	2.237770e-06	1.359130e-08	1	true	DILUPBiCGStab	1.064460e-05	9.603340e-08	1	true
4.78322       	DILUPBiCGStab	2.167980e-06	1.424830e-08	1	true	DILUPBiCGStab	9.796250e-07	9.796250e-07	0	true	DILUPBiCGStab	2.299550e-06	1.429780e-08	1	true	DILUPBiCGStab	1.079600e-05	9.423240e-08	1	true
4.83984       	DILUPBiCGStab	2.233780e-06	1.517250e-08	1	true	DILUPBiCGStab	1.024120e-06	1.642140e-08	1	true	DILUPBiCGStab	2.365490e-06	1.527830e-08	1	true	DILUPBiCGStab	1.127490e-05	9.480170e-08	1	true
4.89646       	DILUPBiCGStab	2.278110e-06	1.678600e-08	1	true	DILUPBiCGStab	9.824060e-07	9.824060e-07	0	true	DILUPBiCGStab	2.411660e-06	1.708830e-08	1	true	DILUPBiCGStab	1.163800e-05	9.343730e-08	1	true
4.95307       	DILUPBiCGStab	2.302340e-06	1.606430e-08	1	true	DILUPBiCGStab	9.944060e-07	9.944060e-07	0	true	DILUPBiCGStab	2.427930e-06	1.615360e-08	1	true	DILUPBiCGStab	1.172390e-05	8.846880e-08	1	true
5.00967       	DILUPBiCGStab	2.319240e-06	1.303690e-08	1	true	DILUPBiCGStab	9.654190e-07	9.654190e-07	0	true	DILUPBiCGStab	2.450510e-06	1.305970e-08	1	true	DILUPBiCGStab	1.201990e-05	8.582230e-08	1	true
5.06627       	DILUPBiCGStab	2.297570e-06	1.596490e-08	1	true	DILUPBiCGStab	1.010270e-06	1.450660e-08	1	true	DILUPBiCGStab	2.426490e-06	1.614820e-08	1	true	DILUPBiCGStab	1.204610e-05	8.853350e-08	1	true
5.12286       	DILUPBiCGStab	2.275630e-06	1.390040e-08	1	true	DILUPBiCGStab	1.013350e-06	1.334670e-08	1	true	DILUPBiCGStab	2.401600e-06	1.396400e-08	1	true	DILUPBiCGStab	1.185120e-05	8.952130e-08	1	true
5.17945       	DILUPBiCGStab	2.223420e-06	1.593470e-08	1	true	DILUPBiCGStab	1.015800e-06	1.910000e-08	1	true	DILUPBiCGStab	2.351260e-06	1.620190e-08	1	true	DILUPBiCGStab	1.193120e-05	8.852060e-08	1	true
5.23609       	DILUPBiCGStab	2.170780e-06	1.223550e-08	1	true	DILUPBiCGStab	9.705510e-07	9.705510e-07	0	true	DILUPBiCGStab	2.301150e-06	1.229830e-08	1	true	DILUPBiCGStab	1.150180e-05	8.663910e-08	1	true
5.29274       	DILUPBiCGStab	2.116560e-06	1.284880e-08	1	true	DILUPBiCGStab	1.012600e-06	1.605660e-08	1	true	DILUPBiCGStab	2.243050e-06	1.291770e-08	1	true	DILUPBiCGStab	1.109630e-05	8.680320e-08	1	true
5.34935       	DILUPBiCGStab	2.077050e-06	1.286290e-08	1	true	DILUPBiCGStab	1.018300e-06	1.563600e-08	1	true	DILUPBiCGStab	2.202970e-06	1.296360e-08	1	true	DILUPBiCGStab	1.112040e-05	8.922500e-08	1	true
5.40597       	DILUPBiCGStab	2.038540e-06	1.345810e-08	1	true	DILUPBiCGStab	9.663650e-07	9.663650e-07	0	true	DILUPBiCGStab	2.173200e-06	1.354060e-08	1	true	DILUPBiCGStab	1.070370e-05	8.973480e-08	1	true
5.46244       	DILUPBiCGStab	2.013930e-06	1.394690e-08	1	true	DILUPBiCGStab	1.020640e-06	1.742820e-08	1	true	DILUPBiCGStab	2.154270e-06	1.437780e-08	1	true	DILUPBiCGStab	1.066180e-05	8.799010e-08	1	true
5.51875       	DILUPBiCGStab	2.015190e-06	1.500720e-08	1	true	DILUPBiCGStab	9.711880e-07	9.711880e-07	0	true	DILUPBiCGStab	2.159300e-06	1.555100e-08	1	true	DILUPBiCGStab	1.046760e-05	8.761860e-08	1	true
5.57527       	DILUPBiCGStab	2.023580e-06	1.454280e-08	1	true	DILUPBiCGStab	1.000770e-06	1.805220e-08	1	true	DILUPBiCGStab	2.166590e-06	1.508640e-08	1	true	DILUPBiCGStab	1.070030e-05	8.752890e-08	1	true
5.63184       	DILUPBiCGStab	2.033240e-06	1.490090e-08	1	true	DILUPBiCGStab	9.793300e-07	9.793300e-07	0	true	DILUPBiCGStab	2.169120e-06	1.528950e-08	1	true	DILUPBiCGStab	1.090630e-05	8.864740e-08	1	true
5.68835       	DILUPBiCGStab	2.055650e-06	1.476620e-08	1	true	DILUPBiCGStab	9.748900e-07	9.748900e-07	0	true	DILUPBiCGStab	2.192530e-06	1.517950e-08	1	true	DILUPBiCGStab	1.071970e-05	8.592410e-08	1	true
5.7449        	DILUPBiCGStab	2.103520e-06	1.556800e-08	1	true	DILUPBiCGStab	1.003110e-06	1.321220e-08	1	true	DILUPBiCGStab	2.248150e-06	1.610990e-08	1	true	DILUPBiCGStab	1.093800e-05	8.356610e-08	1	true
5.80151       	DILUPBiCGStab	2.156820e-06	1.495920e-08	1	true	DILUPBiCGStab	1.002790e-06	1.398520e-08	1	true	DILUPBiCGStab	2.295070e-06	1.542880e-08	1	true	DILUPBiCGStab	1.143540e-05	8.890050e-08	1	true
5.85814       	DILUPBiCGStab	2.224930e-06	1.500230e-08	1	true	DILUPBiCGStab	9.880730e-07	9.880730e-07	0	true	DILUPBiCGStab	2.369680e-06	1.546810e-08	1	true	DILUPBiCGStab	1.180010e-05	8.825750e-08	1	true
5.91474       	DILUPBiCGStab	2.269670e-06	1.522650e-08	1	true	DILUPBiCGStab	9.982890e-07	9.982890e-07	0	true	DILUPBiCGStab	2.414010e-06	1.579100e-08	1	true	DILUPBiCGStab	1.199330e-05	8.657660e-08	1	true
5.97137       	DILUPBiCGStab	2.281450e-06	1.535560e-08	1	true	DILUPBiCGStab	9.885770e-07	9.885770e-07	0	true	DILUPBiCGStab	2.419960e-06	1.587050e-08	1	true	DILUPBiCGStab	1.202190e-05	8.559900e-08	1	true
6.02804       	DILUPBiCGStab	2.263640e-06	1.444530e-08	1	true	DILUPBiCGStab	9.912710e-07	9.912710e-07	0	true	DILUPBiCGStab	2.406190e-06	1.490040e-08	1	true	DILUPBiCGStab	1.198600e-05	8.676910e-08	1	true
6.08471       	DILUPBiCGStab	2.239140e-06	1.438440e-08	1	true	DILUPBiCGStab	9.914490e-07	9.914490e-07	0	true	DILUPBiCGStab	2.377120e-06	1.485490e-08	1	true	DILUPBiCGStab	1.180800e-05	8.772180e-08	1	true
6.14139       	DILUPBiCGStab	2.215690e-06	1.409990e-08	1	true	DILUPBiCGStab	1.005500e-06	1.231780e-08	1	true	DILUPBiCGStab	2.350420e-06	1.445730e-08	1	true	DILUPBiCGStab	1.155950e-05	8.678560e-08	1	true
6.19809       	DILUPBiCGStab	2.209110e-06	1.347920e-08	1	true	DILUPBiCGStab	9.630730e-07	9.630730e-07	0	true	DILUPBiCGStab	2.342410e-06	1.373170e-08	1	true	DILUPBiCGStab	1.164870e-05	8.700810e-08	1	true
6.2548        	DILUPBiCGStab	2.213320e-06	1.430720e-08	1	true	DILUPBiCGStab	9.746770e-07	9.746770e-07	0	true	DILUPBiCGStab	2.346310e-06	1.464200e-08	1	true	DILUPBiCGStab	1.201580e-05	8.542020e-08	1	true
6.31155       	DILUPBiCGStab	2.211100e-06	1.474070e-08	1	true	DILUPBiCGStab	9.706010e-07	9.706010e-07	0	true	DILUPBiCGStab	2.351710e-06	1.518010e-08	1	true	DILUPBiCGStab	1.222440e-05	8.353160e-08	1	true
6.36822       	DILUPBiCGStab	2.206600e-06	1.323220e-08	1	true	DILUPBiCGStab	1.006280e-06	1.369040e-08	1	true	DILUPBiCGStab	2.349490e-06	1.370860e-08	1	true	DILUPBiCGStab	1.194970e-05	8.286250e-08	1	true
6.42489       	DILUPBiCGStab	2.220020e-06	1.309580e-08	1	true	DILUPBiCGStab	9.997440e-07	9.997440e-07	0	true	DILUPBiCGStab	2.361230e-06	1.343330e-08	1	true	DILUPBiCGStab	1.155720e-05	8.117020e-08	1	true
6.48162       	DILUPBiCGStab	2.260350e-06	1.324180e-08	1	true	DILUPBiCGStab	9.668760e-07	9.668760e-07	0	true	DILUPBiCGStab	2.406050e-06	1.377330e-08	1	true	DILUPBiCGStab	1.146660e-05	7.894500e-08	1	true
6.53838       	DILUPBiCGStab	2.297190e-06	1.322670e-08	1	true	DILUPBiCGStab	9.644260e-07	9.644260e-07	0	true	DILUPBiCGStab	2.440850e-06	1.358470e-08	1	true	DILUPBiCGStab	1.171010e-05	7.834100e-08	1	true
6.59509       	DILUPBiCGStab	2.332110e-06	1.373070e-08	1	true	DILUPBiCGStab	9.695490e-07	9.695490e-07	0	true	DILUPBiCGStab	2.473740e-06	1.408240e-08	1	true	DILUPBiCGStab	1.197650e-05	7.930010e-08	1	true
6.65178       	DILUPBiCGStab	2.357350e-06	1.538420e-08	1	true	DILUPBiCGStab	9.861880e-07	9.861880e-07	0	true	DILUPBiCGStab	2.495020e-06	1.587210e-08	1	true	DILUPBiCGStab	1.219970e-05	8.067910e-08	1	true
6.70843       	DILUPBiCGStab	2.373540e-06	1.198450e-08	1	true	DILUPBiCGStab	1.015930e-06	1.559980e-08	1	true	DILUPBiCGStab	2.507900e-06	1.214750e-08	1	true	DILUPBiCGStab	1.234660e-05	7.880970e-08	1	true
6.76514       	DILUPBiCGStab	2.371240e-06	1.291860e-08	1	true	DILUPBiCGStab	9.805990e-07	9.805990e-07	0	true	DILUPBiCGStab	2.510930e-06	1.324730e-08	1	true	DILUPBiCGStab	1.238950e-05	7.841710e-08	1	true
6.82187       	DILUPBiCGStab	2.358180e-06	1.057320e-08	1	true	DILUPBiCGStab	9.856960e-07	9.856960e-07	0	true	DILUPBiCGStab	2.496170e-06	1.071500e-08	1	true	DILUPBiCGStab	1.224190e-05	7.782920e-08	1	true
6.87854       	DILUPBiCGStab	2.342790e-06	1.104080e-08	1	true	DILUPBiCGStab	9.966120e-07	9.966120e-07	0	true	DILUPBiCGStab	2.479550e-06	1.119590e-08	1	true	DILUPBiCGStab	1.209520e-05	7.707720e-08	1	true
6.93523       	DILUPBiCGStab	2.311770e-06	1.238330e-08	1	true	DILUPBiCGStab	9.747410e-07	9.747410e-07	0	true	DILUPBiCGStab	2.448030e-06	1.269270e-08	1	true	DILUPBiCGStab	1.186170e-05	7.579710e-08	1	true
6.99196       	DILUPBiCGStab	2.273690e-06	1.380760e-08	1	true	DILUPBiCGStab	9.762450e-07	9.762450e-07	0	true	DILUPBiCGStab	2.412070e-06	1.426860e-08	1	true	DILUPBiCGStab	1.157900e-05	7.429870e-08	1	true
7.04867       	DILUPBiCGStab	2.219870e-06	1.132400e-08	1	true	DILUPBiCGStab	9.448660e-07	9.448660e-07	0	true	DILUPBiCGStab	2.354910e-06	1.147570e-08	1	true	DILUPBiCGStab	1.148430e-05	7.138960e-08	1	true
7.10543       	DILUPBiCGStab	2.177640e-06	1.282110e-08	1	true	DILUPBiCGStab	9.744680e-07	9.744680e-07	0	true	DILUPBiCGStab	2.316290e-06	1.316520e-08	1	true	DILUPBiCGStab	1.160970e-05	7.141550e-08	1	true
7.16211       	DILUPBiCGStab	2.107120e-06	9.590610e-09	1	true	DILUPBiCGStab	9.712280e-07	9.712280e-07	0	true	DILUPBiCGStab	2.242710e-06	9.633540e-09	1	true	DILUPBiCGStab	1.109520e-05	6.810440e-08	1	true
7.21877       	DILUPBiCGStab	2.041200e-06	1.079730e-08	1	true	DILUPBiCGStab	9.472360e-07	9.472360e-07	0	true	DILUPBiCGStab	2.179620e-06	1.100350e-08	1	true	DILUPBiCGStab	1.038730e-05	6.839830e-08	1	true
7.27548       	DILUPBiCGStab	2.044840e-06	1.064260e-08	1	true	DILUPBiCGStab	1.012670e-06	1.712180e-08	1	true	DILUPBiCGStab	2.184510e-06	1.079250e-08	1	true	DILUPBiCGStab	1.040100e-05	6.558560e-08	1	true
7.33226       	DILUPBiCGStab	2.026300e-06	1.007240e-08	1	true	DILUPBiCGStab	9.528900e-07	9.528900e-07	0	true	DILUPBiCGStab	2.161800e-06	1.017530e-08	1	true	DILUPBiCGStab	1.028170e-05	6.958650e-08	1	true
7.38901       	DILUPBiCGStab	2.043300e-06	1.396570e-08	1	true	DILUPBiCGStab	9.857830e-07	9.857830e-07	0	true	DILUPBiCGStab	2.177860e-06	1.438880e-08	1	true	DILUPBiCGStab	1.017580e-05	6.997840e-08	1	true
7.44555       	DILUPBiCGStab	2.065450e-06	1.331410e-08	1	true	DILUPBiCGStab	9.723850e-07	9.723850e-07	0	true	DILUPBiCGStab	2.211280e-06	1.378860e-08	1	true	DILUPBiCGStab	1.032060e-05	7.234040e-08	1	true
7.50226       	DILUPBiCGStab	2.070970e-06	1.406480e-08	1	true	DILUPBiCGStab	1.017780e-06	1.657900e-08	1	true	DILUPBiCGStab	2.219740e-06	1.456330e-08	1	true	DILUPBiCGStab	1.039890e-05	7.268200e-08	1	true
7.55897       	DILUPBiCGStab	2.049620e-06	1.322970e-08	1	true	DILUPBiCGStab	9.975490e-07	9.975490e-07	0	true	DILUPBiCGStab	2.188990e-06	1.373830e-08	1	true	DILUPBiCGStab	1.040070e-05	6.621690e-08	1	true
7.61566       	DILUPBiCGStab	2.052530e-06	1.312630e-08	1	true	DILUPBiCGStab	9.826270e-07	9.826270e-07	0	true	DILUPBiCGStab	2.190400e-06	1.356200e-08	1	true	DILUPBiCGStab	1.070430e-05	6.734890e-08	1	true
7.67245       	DILUPBiCGStab	2.067270e-06	1.298070e-08	1	true	DILUPBiCGStab	9.458400e-07	9.458400e-07	0	true	DILUPBiCGStab	2.206540e-06	1.335640e-08	1	true	DILUPBiCGStab	1.111770e-05	7.129070e-08	1	true
7.72911       	DILUPBiCGStab	2.043870e-06	1.124960e-08	1	true	DILUPBiCGStab	9.747610e-07	9.747610e-07	0	true	DILUPBiCGStab	2.184850e-06	1.148170e-08	1	true	DILUPBiCGStab	1.145040e-05	7.112390e-08	1	true
7.78581       	DILUPBiCGStab	2.029730e-06	1.321050e-08	1	true	DILUPBiCGStab	9.478800e-07	9.478800e-07	0	true	DILUPBiCGStab	2.173520e-06	1.361840e-08	1	true	DILUPBiCGStab	1.147630e-05	6.805430e-08	1	true
7.84243       	DILUPBiCGStab	2.013330e-06	1.321620e-08	1	true	DILUPBiCGStab	9.982050e-07	9.982050e-07	0	true	DILUPBiCGStab	2.156700e-06	1.375370e-08	1	true	DILUPBiCGStab	1.130260e-05	6.699130e-08	1	true
7.89913       	DILUPBiCGStab	1.982800e-06	1.277750e-08	1	true	DILUPBiCGStab	1.006090e-06	1.959900e-08	1	true	DILUPBiCGStab	2.126110e-06	1.316360e-08	1	true	DILUPBiCGStab	1.140180e-05	6.461060e-08	1	true
7.95587       	DILUPBiCGStab	1.957370e-06	1.384440e-08	1	true	DILUPBiCGStab	9.743200e-07	9.743200e-07	0	true	DILUPBiCGStab	2.097840e-06	1.429160e-08	1	true	DILUPBiCGStab	1.119760e-05	6.361070e-08	1	true
8.01251       	DILUPBiCGStab	1.953120e-06	1.270490e-08	1	true	DILUPBiCGStab	9.890870e-07	9.890870e-07	0	true	DILUPBiCGStab	2.094640e-06	1.324560e-08	1	true	DILUPBiCGStab	1.072160e-05	6.260020e-08	1	true
8.0692        	DILUPBiCGStab	1.986270e-06	1.069960e-08	1	true	DILUPBiCGStab	9.656030e-07	9.656030e-07	0	true	DILUPBiCGStab	2.121390e-06	1.082040e-08	1	true	DILUPBiCGStab	1.094300e-05	6.498840e-08	1	true
8.12597       	DILUPBiCGStab	2.009060e-06	1.218360e-08	1	true	DILUPBiCGStab	1.023260e-06	1.456130e-08	1	true	DILUPBiCGStab	2.141590e-06	1.247320e-08	1	true	DILUPBiCGStab	1.103640e-05	7.023570e-08	1	true
8.18265       	DILUPBiCGStab	2.008450e-06	1.179090e-08	1	true	DILUPBiCGStab	9.963780e-07	9.963780e-07	0	true	DILUPBiCGStab	2.145260e-06	1.214340e-08	1	true	DILUPBiCGStab	1.105720e-05	7.017000e-08	1	true
8.2393        	DILUPBiCGStab	2.012820e-06	1.001840e-08	1	true	DILUPBiCGStab	1.000290e-06	1.602970e-08	1	true	DILUPBiCGStab	2.147620e-06	1.010980e-08	1	true	DILUPBiCGStab	1.114270e-05	7.226190e-08	1	true
8.29601       	DILUPBiCGStab	2.004940e-06	1.336520e-08	1	true	DILUPBiCGStab	9.902230e-07	9.902230e-07	0	true	DILUPBiCGStab	2.149280e-06	1.387520e-08	1	true	DILUPBiCGStab	1.124670e-05	7.383960e-08	1	true