# Probe 0 (0.45 0 0.04)
# Probe 1 (0.45 0 0.105)
# Probe 2 (0.45 0 0.17)
# Probe 3 (0.45 0 0.235)
# Probe 4 (0.45 0 0.3)
# Probe 5 (0.45 0 0.365)
# Probe 6 (0.45 0 0.43)
# Probe 7 (0.45 0 0.495)
# Probe 8 (0.45 0 0.56)
# Probe 9 (0.45 0 0.625)
# Probe 10 (0.45 0 0.69)
# Probe 11 (0.45 0 0.755)
# Probe 12 (0.45 0 0.82)
# Probe 13 (0.45 0 0.885)
# Probe 14 (0.45 0 0.95)
# Time        0             1             2             3             4             5             6             7             8             9             10            11            12            13            14           
0.0998838     4.15134e-166  1.16228e-153  1.21733e-168  1.59143e-184  2.70362e-201  1.54034e-221  5.25815e-239  1.91077e-259  3.25878e-276  1.2773e-296   9.52326e-314  0             0             0             0            
0.199997      8.88651e-140  7.06027e-128  4.85398e-136  2.17783e-142  5.70599e-157  5.52347e-176  5.32363e-193  2.62311e-213  3.94792e-231  3.55515e-252  7.62957e-270  3.57046e-290  1.51104e-306  0             0            
0.300191      1.72229e-127  4.80148e-117  3.11624e-119  2.6284e-116   7.42158e-124  2.31935e-139  1.01697e-154  2.47587e-173  2.00926e-189  1.08014e-208  4.01025e-225  2.97366e-244  1.82128e-260  1.65359e-278  4.15003e-293 
0.400094      2.37471e-119  9.03756e-110  3.04871e-109  9.50671e-106  5.90161e-107  1.62773e-113  3.01481e-125  3.84959e-140  4.01114e-147  1.14995e-162  2.89363e-177  2.01705e-194  1.28212e-208  5.61118e-225  5.04308e-239 
0.500066      1.08795e-112  6.40162e-104  1.4153e-102   1.91063e-99   2.17546e-99   2.02948e-100  1.44999e-104  3.55164e-104  7.1983e-110   5.25571e-124  1.00821e-137  6.0844e-154   1.35921e-167  2.5183e-183   6.89956e-197 
0.600149      5.54947e-107  5.40279e-99   1.6088e-97    1.30907e-94   3.09774e-94   5.1346e-94    6.24107e-94   4.06106e-84   2.17688e-87   5.8963e-99    6.38978e-111  1.01411e-125  1.29273e-138  1.35975e-153  1.19347e-166 
0.699729      3.53192e-102  8.55007e-95   1.64425e-93   9.26362e-91   4.26942e-90   1.7945e-89    4.29583e-87   9.95532e-75   1.70633e-75   2.76213e-83   7.7722e-93    7.32392e-106  7.59452e-118  4.21968e-132  1.00682e-144 
0.799912      4.70324e-98   3.88062e-91   3.77023e-90   1.60392e-87   1.16846e-86   1.1772e-85    1.8613e-80    7.09211e-70   7.73433e-69   2.22396e-72   1.67314e-78   1.71661e-89   2.07932e-100  6.28333e-114  4.15991e-126 
0.900111      1.75283e-94   5.94195e-88   2.84194e-87   9.92001e-85   9.72705e-84   1.85295e-82   6.82057e-76   1.53532e-66   3.93337e-65   4.98389e-66   6.96722e-69   4.26407e-76   3.46624e-85   1.46832e-97   3.55737e-109 
0.999753      2.28504e-91   3.63871e-85   9.16041e-85   2.82127e-82   3.4109e-81    9.66091e-80   1.82205e-72   5.83689e-64   1.88199e-62   2.22664e-62   1.07259e-62   1.99692e-66   7.83304e-73   1.44689e-83   5.79772e-94  
1.09997       1.37265e-88   1.12718e-82   1.62807e-82   4.63546e-80   6.705e-79     2.44732e-77   1.01275e-69   7.77346e-62   2.68169e-60   8.04413e-60   4.74311e-59   7.6377e-60    1.64749e-63   1.27886e-71   1.76526e-80  
1.20019       4.22659e-86   1.93312e-80   1.74885e-80   4.74161e-78   8.05592e-77   3.62798e-75   1.86808e-67   4.8639e-60    1.66027e-58   8.79354e-58   9.81294e-57   2.15249e-55   3.90547e-56   1.14638e-60   2.6387e-67   
1.29984       7.25665e-84   1.97573e-78   1.21366e-78   3.17259e-76   6.21179e-75   3.39731e-73   1.53251e-65   1.71428e-58   5.59915e-57   4.52542e-56   6.66635e-55   1.32721e-52   3.5066e-51    4.80081e-51   1.213e-53    
1.40008       8.00818e-82   1.36497e-76   6.07122e-77   1.53014e-74   3.38591e-73   2.1939e-71    7.22894e-64   4.04681e-57   1.2539e-55    1.39868e-54   2.39612e-53   1.28754e-50   1.3089e-47    8.93743e-44   5.0234e-42   
1.49974       5.76612e-80   6.42967e-75   2.20337e-75   5.32311e-73   1.30511e-71   9.63596e-70   2.13384e-62   6.76344e-56   1.99224e-54   2.81233e-53   5.29342e-52   4.4964e-49    8.72879e-45   5.9919e-33    3.23973e-29  
1.59998       2.99943e-78   2.26455e-73   6.28012e-74   1.44907e-71   3.8465e-70    3.11642e-68   4.51663e-61   8.80796e-55   2.47396e-53   4.13835e-52   8.45019e-51   2.27774e-38   4.34338e-24   3.44175e-14   2.84971e-13  
1.70024       1.14279e-76   6.03893e-72   1.40951e-72   3.07827e-70   8.70806e-69   7.52137e-67   7.17526e-60   9.18326e-54   2.48101e-52   1.64021e-48   6.34358e-34   1.47599e-17   5.58359e-07   2.45357e-06   2.11801e-06  
1.79996       3.26993e-75   1.24162e-70   2.53324e-71   5.19171e-69   1.54437e-67   1.39065e-65   8.92397e-59   7.88632e-53   3.69847e-49   6.00985e-32   7.42563e-18   2.24555e-06   4.98559e-06   7.02526e-06   6.20997e-06  
1.90022       7.53307e-74   2.11097e-69   3.85525e-70   7.35495e-68   2.2794e-66    2.09949e-64   9.24598e-58   4.7943e-50    1.61472e-35   6.66431e-19   1.41554e-06   6.43184e-06   1.08807e-05   1.55028e-05   1.43225e-05  
1.99995       1.38362e-72   2.9246e-68    4.90353e-69   8.66384e-67   2.768e-65     2.57401e-63   2.92373e-56   8.69254e-39   1.30803e-24   5.88659e-08   5.44491e-06   1.15377e-05   1.91518e-05   2.80095e-05   2.68914e-05  
2.10023       2.13723e-71   3.47954e-67   5.44335e-68   8.86555e-66   2.89103e-64   7.84301e-62   2.13294e-46   4.96692e-29   6.49576e-15   4.11474e-06   9.11449e-06   1.78295e-05   2.98207e-05   4.51206e-05   4.51772e-05  
2.19997       2.7485e-70    3.5139e-66    5.2126e-67    7.80229e-65   2.57944e-63   5.85293e-53   1.30194e-37   1.29374e-20   6.62627e-07   7.06705e-06   1.32285e-05   2.54055e-05   4.32017e-05   6.82579e-05   7.23954e-05  
2.30019       3.06397e-69   3.12576e-65   4.46181e-66   6.11042e-64   2.34009e-62   5.11595e-45   8.02762e-30   1.07314e-12   3.94574e-06   9.91775e-06   1.76733e-05   3.40133e-05   5.88994e-05   9.70369e-05   0.000109194  
2.39996       2.94792e-68   2.43506e-64   3.4033e-65    4.23144e-63   6.93779e-56   7.67624e-38   1.08872e-22   1.05542e-06   6.05061e-06   1.27792e-05   2.23726e-05   4.35166e-05   7.66979e-05   0.000131702   0.000159146  
2.5002        2.52885e-67   1.71021e-63   2.36768e-64   2.68579e-62   5.14361e-49   4.22723e-31   7.67206e-16   3.54361e-06   8.00121e-06   1.57287e-05   2.73937e-05   5.39574e-05   9.67956e-05   0.000173822   0.000229867  
2.59989       1.91325e-66   1.07301e-62   1.48708e-63   9.28364e-58   1.9316e-42    1.57577e-24   2.90829e-09   5.14862e-06   9.86184e-06   1.86916e-05   3.25974e-05   6.50536e-05   0.000118753   0.000222998   0.000327112  
2.70017       1.30681e-65   6.16898e-62   8.65087e-63   3.28129e-51   6.12079e-36   3.36748e-18   1.84581e-06   6.56719e-06   1.16849e-05   2.17437e-05   3.8106e-05    7.70505e-05   0.000143146   0.000281524   0.000464673  
2.79986       8.02669e-65   3.21796e-61   3.33017e-60   5.28842e-45   6.42226e-30   2.06544e-12   3.37704e-06   7.91827e-06   1.35047e-05   2.49241e-05   4.39642e-05   9.0049e-05    0.000170363   0.000351475   0.000654737  
2.90008       4.56142e-64   1.5618e-60    3.04815e-54   3.21053e-39   2.47101e-24   1.85009e-07   4.50128e-06   9.2222e-06    1.53203e-05   2.81937e-05   5.00916e-05   0.000103967   0.000200401   0.000432448   0.000897176  
2.9998        2.35323e-63   6.97276e-60   9.62995e-49   6.27032e-34   2.91064e-19   1.98688e-06   5.46536e-06   1.04558e-05   1.71115e-05   3.15249e-05   5.64497e-05   0.000118726   0.000233016   0.000524174   0.0011939    
3.10001       1.1282e-62    3.00669e-59   1.17394e-43   4.59732e-29   1.21858e-14   3.02356e-06   6.34425e-06   1.16405e-05   1.88954e-05   3.49334e-05   6.30579e-05   0.000134365   0.000268339   0.00062754    0.00154422   
3.19972       5e-62         6.31918e-56   5.01234e-39   1.16864e-24   1.88484e-10   3.82312e-06   7.1823e-06    1.28138e-05   2.0716e-05    3.84798e-05   6.99969e-05   0.000151009   0.000306762   0.000744611   0.00193178   
3.29993       2.08549e-61   2.01247e-51   9.39115e-35   1.42277e-20   3.46557e-07   4.53551e-06   8.00876e-06   1.40084e-05   2.26057e-05   4.21923e-05   7.72935e-05   0.000168772   0.000348828   0.0008761     0.00233698   
3.40019       9.90353e-61   3.01057e-47   8.96352e-31   9.18951e-17   1.6717e-06    5.21744e-06   8.84061e-06   1.52498e-05   2.45943e-05   4.61079e-05   8.50022e-05   0.00018782    0.000395058   0.00102254    0.00274367   
3.49988       1.91638e-57   2.32602e-43   4.73034e-27   3.62681e-13   2.49899e-06   5.8975e-06    9.69585e-06   1.65578e-05   2.67032e-05   5.02491e-05   9.31529e-05   0.00020826    0.000445823   0.00118316    0.0031348    
3.60012       1.28987e-53   1.17521e-39   1.7892e-23    1.06117e-09   3.1774e-06    6.59527e-06   1.05929e-05   1.79492e-05   2.89476e-05   5.46303e-05   0.000101778   0.000230279   0.000501779   0.00135731    0.0034944    
3.69978       5.49359e-50   3.97918e-36   4.7335e-20    4.13129e-07   3.78677e-06   7.29968e-06   1.15165e-05   1.93924e-05   3.12688e-05   5.91318e-05   0.00011066    0.00025344    0.00056204    0.00154044    0.00382232   
3.79998       1.75306e-46   1.03176e-32   9.4957e-17    1.55022e-06   4.36605e-06   8.01136e-06   1.24667e-05   2.08836e-05   3.36578e-05   6.37378e-05   0.000119782   0.000277796   0.000626989   0.00173325    0.00414427   
3.9002        4.14538e-43   1.99021e-29   1.40153e-13   2.28217e-06   4.93218e-06   8.72766e-06   1.344e-05     2.24196e-05   3.61089e-05   6.84382e-05   0.000129125   0.000303319   0.000696721   0.00193282    0.00441329   
3.99983       7.08224e-40   2.78164e-26   1.54878e-10   2.87226e-06   5.49103e-06   9.44634e-06   1.4428e-05    2.39836e-05   3.85941e-05   7.31774e-05   0.000138579   0.000329748   0.000770462   0.0021324     0.00457164   
4.09998       9.66002e-37   3.1567e-23    9.15311e-08   3.39969e-06   6.04663e-06   1.0171e-05    1.54329e-05   2.55762e-05   4.11127e-05   7.79542e-05   0.000148146   0.000357155   0.000848443   0.0023286     0.00461307   
4.20011       1.04563e-33   2.85558e-20   1.04856e-06   3.89594e-06   6.59813e-06   1.09011e-05   1.64523e-05   2.7193e-05    4.36573e-05   8.27531e-05   0.000157786   0.000385404   0.000929977   0.00251656    0.00456244   
4.30016       8.97155e-31   2.02362e-17   1.80353e-06   4.37847e-06   7.15021e-06   1.16402e-05   1.74884e-05   2.88349e-05   4.62277e-05   8.75707e-05   0.000167487   0.000414423   0.0010145     0.00269353    0.00442338   
4.40021       6.17126e-28   1.18682e-14   2.36507e-06   4.84597e-06   7.69782e-06   1.23776e-05   1.85226e-05   3.04669e-05   4.87682e-05   9.23093e-05   0.000177077   0.000443889   0.00110145    0.00286053    0.00422295   
4.50028       3.527e-25     5.86999e-12   2.84879e-06   5.30456e-06   8.24464e-06   1.31229e-05   1.95681e-05   3.21094e-05   5.13078e-05   9.7018e-05    0.000186638   0.000473935   0.0011908     0.00301785    0.00402588   
4.6001        1.71781e-22   2.57267e-09   3.29488e-06   5.76149e-06   8.79504e-06   1.38783e-05   2.06264e-05   3.37613e-05   5.38421e-05   0.000101685   0.000196139   0.000504414   0.00128223    0.00316321    0.00395937   
4.69987       7.63145e-20   2.9391e-07    3.71272e-06   6.21327e-06   9.34343e-06   1.46329e-05   2.16802e-05   3.53936e-05   5.63272e-05   0.000106237   0.000205466   0.000535176   0.00137649    0.00329324    0.00413363   
4.8002        3.21139e-17   1.16979e-06   4.10823e-06   6.65508e-06   9.88578e-06   1.53822e-05   2.2723e-05    3.69975e-05   5.87512e-05   0.000110656   0.000214598   0.000566323   0.00147482    0.00340317    0.00437808   
4.89985       1.16727e-14   1.75021e-06   4.48327e-06   7.08122e-06   1.04153e-05   1.61177e-05   2.37444e-05   3.85584e-05   6.10923e-05   0.000114902   0.000223439   0.000597443   0.00157626    0.00349147    0.00461012   
5.00005       4.05452e-12   2.20518e-06   4.8458e-06    7.49711e-06   1.09375e-05   1.68466e-05   2.47553e-05   4.00947e-05   6.33794e-05   0.000119024   0.000232075   0.000628743   0.00168147    0.00357169    0.00482144   
5.10023       1.3697e-09    2.59957e-06   5.19704e-06   7.90273e-06   1.14512e-05   1.75674e-05   2.5754e-05    4.1605e-05    6.56104e-05   0.000123013   0.000240452   0.000659756   0.0017885     0.00366775    0.00502523   
5.19984       1.93673e-07   2.95994e-06   5.53791e-06   8.29851e-06   1.1956e-05    1.82791e-05   2.67394e-05   4.30885e-05   6.77841e-05   0.00012686    0.000248502   0.000689854   0.00189514    0.00379624    0.00522027   
5.3001        1.00547e-06   3.30364e-06   5.87366e-06   8.6894e-06    1.24571e-05   1.89881e-05   2.77212e-05   4.45612e-05   6.99247e-05   0.000130601   0.000256253   0.000718776   0.00200188    0.00394471    0.00536451   
5.39974       1.5896e-06    3.63962e-06   6.20347e-06   9.07351e-06   1.29511e-05   1.96895e-05   2.86926e-05   4.60134e-05   7.20182e-05   0.000134201   0.000263562   0.000745565   0.00210841    0.00409172    0.00541758   
5.50016       2.08494e-06   3.98578e-06   6.53605e-06   9.45674e-06   1.34436e-05   2.03899e-05   2.96628e-05   4.74612e-05   7.40901e-05   0.000137702   0.000270473   0.00077011    0.0022198     0.00423126    0.00537172   
5.60018       2.54899e-06   4.34942e-06   6.87311e-06   9.83692e-06   1.3929e-05    2.108e-05     3.06188e-05   4.88858e-05   7.61159e-05   0.000141061   0.000276871   0.000791919   0.00233872    0.00435989    0.00524971   
5.70023       2.99205e-06   4.73444e-06   7.22076e-06   1.02168e-05   1.44075e-05   2.17582e-05   3.15578e-05   5.02838e-05   7.80936e-05   0.000144285   0.000282773   0.00081124    0.00246489    0.00447846    0.00508001   
5.79981       3.4052e-06    5.13081e-06   7.58038e-06   1.05978e-05   1.4878e-05    2.24206e-05   3.24733e-05   5.16445e-05   8.00081e-05   0.000147352   0.000288151   0.000828309   0.00259065    0.00458799    0.00490036   
5.90002       3.79498e-06   5.53323e-06   7.95665e-06   1.09879e-05   1.53492e-05   2.30774e-05   3.33782e-05   5.29848e-05   8.18795e-05   0.000150288   0.000293058   0.000843569   0.00270773    0.00469141    0.00475454   
6.00026       4.15685e-06   5.93057e-06   8.344e-06     1.13859e-05   1.58192e-05   2.37246e-05   3.42663e-05   5.42941e-05   8.36903e-05   0.000153063   0.000297451   0.00085704    0.00280846    0.00478931    0.00466553   
6.10001       4.49426e-06   6.31753e-06   8.73768e-06   1.17915e-05   1.62892e-05   2.43627e-05   3.51382e-05   5.55723e-05   8.54363e-05   0.00015566    0.000301302   0.000868488   0.00289014    0.00487261    0.00464134   
6.19979       4.8177e-06    6.69816e-06   9.13891e-06   1.22086e-05   1.67661e-05   2.5001e-05    3.6006e-05    5.68368e-05   8.71394e-05   0.000158105   0.000304641   0.000877591   0.00295431    0.00493167    0.00466262   
6.30021       5.13694e-06   7.07866e-06   9.55065e-06   1.26416e-05   1.72568e-05   2.56486e-05   3.68813e-05   5.81051e-05   8.88233e-05   0.000160431   0.000307518   0.000884052   0.0030034     0.00497717    0.00471713   
6.39995       5.44626e-06   7.45233e-06   9.96439e-06   1.30819e-05   1.77532e-05   2.62949e-05   3.77498e-05   5.93587e-05   9.04694e-05   0.00016263    0.000309972   0.000887698   0.0030386     0.00500508    0.00481674   
6.49978       5.74582e-06   7.82033e-06   1.03809e-05   1.35307e-05   1.82573e-05   2.69423e-05   3.86141e-05   6.06028e-05   9.20907e-05   0.000164742   0.000312108   0.00088867    0.00306141    0.00500439    0.00497594   
6.60019       6.04326e-06   8.1887e-06    1.08045e-05   1.39923e-05   1.87748e-05   2.75978e-05   3.94819e-05   6.18474e-05   9.37019e-05   0.000166796   0.000313992   0.000887059   0.00307285    0.0049778     0.00515383   
6.69992       6.33232e-06   8.55065e-06   1.1227e-05    1.44578e-05   1.92966e-05   2.82507e-05   4.03385e-05   6.30715e-05   9.52795e-05   0.000168778   0.000315662   0.000883254   0.00307357    0.00493875    0.00527092   
6.79974       6.61471e-06   8.90856e-06   1.16508e-05   1.49296e-05   1.98258e-05   2.89058e-05   4.11896e-05   6.42826e-05   9.68347e-05   0.000170713   0.000317166   0.000877562   0.00306473    0.00491785    0.00529141   
6.90007       6.89059e-06   9.26235e-06   1.20755e-05   1.54072e-05   2.03635e-05   2.95647e-05   4.20376e-05   6.54834e-05   9.83723e-05   0.000172612   0.000318534   0.000870265   0.00304795    0.00493682    0.00522151   
6.9999        7.15938e-06   9.6102e-06    1.24976e-05   1.58861e-05   2.09043e-05   3.02223e-05   4.28762e-05   6.66649e-05   9.98804e-05   0.000174464   0.000319765   0.000861706   0.0030257     0.00498522    0.00507889   
7.09974       7.4275e-06    9.95848e-06   1.29226e-05   1.63712e-05   2.14534e-05   3.08861e-05   4.37154e-05   6.78404e-05   0.000101375   0.000176286   0.00032088    0.000852108   0.00299986    0.0050457     0.0049008    
7.20008       7.69395e-06   1.03061e-05   1.33493e-05   1.6861e-05    2.201e-05     3.15563e-05   4.4557e-05    6.90146e-05   0.000102865   0.0001781     0.00032193    0.000841826   0.00297282    0.00510936    0.00474027   
7.29992       7.9565e-06    1.06499e-05   1.37734e-05   1.73504e-05   2.25678e-05   3.2226e-05    4.5393e-05    7.01779e-05   0.000104341   0.000179901   0.000322941   0.000831283   0.00294839    0.00516666    0.00476648   
7.39977       8.21865e-06   1.09935e-05   1.41984e-05   1.78422e-05   2.313e-05     3.28995e-05   4.62297e-05   7.134e-05     0.000105817   0.000181711   0.000323951   0.000820704   0.00293152    0.00521035    0.00496171   
7.49998       8.47537e-06   1.13319e-05   1.46195e-05   1.83318e-05   2.36922e-05   3.35727e-05   4.70636e-05   7.24993e-05   0.000107297   0.000183549   0.000325022   0.000810431   0.00292608    0.0052344     0.00515833   
7.59978       8.72551e-06   1.16632e-05   1.50338e-05   1.88159e-05   2.42499e-05   3.42407e-05   4.78885e-05   7.3648e-05    0.000108772   0.000185409   0.000326176   0.000800773   0.00293611    0.00523376    0.00527303   
7.70023       8.97675e-06   1.19964e-05   1.54508e-05   1.9304e-05    2.4813e-05    3.49143e-05   4.8718e-05    7.48037e-05   0.000110265   0.000187318   0.000327435   0.000791724   0.00296368    0.00520649    0.0053039    
7.79997       9.22444e-06   1.23253e-05   1.58631e-05   1.97872e-05   2.53717e-05   3.55826e-05   4.95392e-05   7.595e-05     0.000111755   0.000189258   0.000328808   0.000783543   0.00300639    0.00515905    0.00526771   
7.90027       9.47225e-06   1.26546e-05   1.62763e-05   2.02721e-05   2.5933e-05    3.62541e-05   5.0363e-05    7.71024e-05   0.000113264   0.00019126    0.000330335   0.000776223   0.00306104    0.00512482    0.00519359   
8.00005       9.71662e-06   1.29797e-05   1.66847e-05   2.07521e-05   2.64898e-05   3.6921e-05    5.11803e-05   7.82488e-05   0.00011478    0.000193315   0.000332032   0.000769956   0.00312313    0.00512133    0.00512992   
8.09985       9.95372e-06   1.32967e-05   1.70848e-05   2.12242e-05   2.70397e-05   3.75817e-05   5.19907e-05   7.93904e-05   0.000116305   0.000195439   0.00033394    0.000764826   0.0031864     0.00513567    0.00515255   
8.20021       1.01851e-05   1.36078e-05   1.74795e-05   2.16915e-05   2.75863e-05   3.82406e-05   5.27991e-05   8.05335e-05   0.00011785    0.000197644   0.000336076   0.00076083    0.00324695    0.0051551     0.00528382   
8.29997       1.04123e-05   1.39142e-05   1.78692e-05   2.21541e-05   2.8128e-05    3.88945e-05   5.36009e-05   8.16686e-05   0.000119396   0.000199902   0.000338403   0.000757964   0.00330844    0.00517269    0.00546033   
8.40018       1.06379e-05   1.42194e-05   1.82583e-05   2.26169e-05   2.86711e-05   3.95511e-05   5.44057e-05   8.28092e-05   0.000120962   0.000202237   0.000340949   0.000756186   0.0033818     0.00519004    0.00564195   
8.49988       1.08567e-05   1.4517e-05    1.86396e-05   2.30718e-05   2.92069e-05   4.02014e-05   5.52037e-05   8.39425e-05   0.000122531   0.00020463    0.000343701   0.000755549   0.00348469    0.00521835    0.0057996    
8.60015       1.10708e-05   1.48103e-05   1.90174e-05   2.35244e-05   2.97418e-05   4.08528e-05   5.60041e-05   8.50812e-05   0.000124121   0.000207105   0.000346693   0.000756059   0.0036379     0.00526389    0.00591926   
8.69986       1.12797e-05   1.50981e-05   1.93899e-05   2.39722e-05   3.02726e-05   4.15007e-05   5.68004e-05   8.62144e-05   0.000125715   0.000209635   0.000349888   0.000757689   0.00385332    0.00532093    0.00600063   
8.80011       1.14863e-05   1.53845e-05   1.97624e-05   2.44216e-05   3.08066e-05   4.2154e-05    5.7603e-05    8.73556e-05   0.00012733    0.000212244   0.000353319   0.000760442   0.0041213     0.00539077    0.00606335   
8.89985       1.16897e-05   1.5668e-05    2.0133e-05    2.48701e-05   3.13408e-05   4.28081e-05   5.84058e-05   8.84945e-05   0.00012895    0.000214905   0.00035695    0.000764285   0.00436288    0.00546916    0.00612292   
8.99991       1.18884e-05   1.59477e-05   2.05011e-05   2.53179e-05   3.18761e-05   4.34659e-05   5.92135e-05   8.9639e-05    0.000130586   0.000217639   0.000360821   0.00076929    0.00449993    0.00555258    0.00616937   
9.1002        1.20836e-05   1.62248e-05   2.08687e-05   2.57668e-05   3.24148e-05   4.41293e-05   6.00273e-05   9.07881e-05   0.000132236   0.000220437   0.000364918   0.000775446   0.00455478    0.00563798    0.00618375   
9.19973       1.22697e-05   1.64929e-05   2.12277e-05   2.62083e-05   3.29477e-05   4.47887e-05   6.08369e-05   9.19281e-05   0.00013388    0.00022327    0.000369203   0.000782764   0.00457719    0.00572216    0.00615941   
9.30002       1.2449e-05    1.67556e-05   2.15838e-05   2.66491e-05   3.34832e-05   4.54546e-05   6.1655e-05    9.30751e-05   0.000135538   0.000226171   0.000373728   0.000791471   0.00458951    0.00580434    0.00610468   
9.4002        1.26221e-05   1.70131e-05   2.19366e-05   2.7089e-05    3.40201e-05   4.61248e-05   6.24776e-05   9.42201e-05   0.000137193   0.000229102   0.000378431   0.000801666   0.00459769    0.00588183    0.00604247   
9.49982       1.27904e-05   1.72671e-05   2.22879e-05   2.75296e-05   3.45599e-05   4.68001e-05   6.33045e-05   9.536e-05     0.000138834   0.000232034   0.00038326    0.000813508   0.00460361    0.00595277    0.00600038   
9.59994       1.29544e-05   1.75189e-05   2.26397e-05   2.79729e-05   3.51062e-05   4.74858e-05   6.41435e-05   9.65053e-05   0.000140474   0.000234985   0.000388239   0.000827444   0.00460896    0.00601716    0.00598963   
9.70011       1.31124e-05   1.77663e-05   2.29893e-05   2.84166e-05   3.5655e-05    4.81776e-05   6.49898e-05   9.76496e-05   0.000142101   0.000237925   0.000393317   0.000843809   0.00461428    0.00606822    0.0060032    
9.79975       1.32658e-05   1.80106e-05   2.33378e-05   2.88611e-05   3.62067e-05   4.88747e-05   6.58413e-05   9.87881e-05   0.000143703   0.000240821   0.00039843    0.000862815   0.00461973    0.00611       0.00603571   
9.89978       1.34141e-05   1.82519e-05   2.36857e-05   2.93079e-05   3.67628e-05   4.95797e-05   6.67026e-05   9.99288e-05   0.000145291   0.000243688   0.0004036     0.000884896   0.00462607    0.00614017    0.00607967   
10            1.35555e-05   1.8488e-05    2.40304e-05   2.97527e-05   3.73197e-05   5.02882e-05   6.75688e-05   0.000101067   0.00014686    0.000246509   0.000408803   0.000910072   0.00463348    0.00615793    0.00611221   
10.1001       1.36889e-05   1.87173e-05   2.43699e-05   3.01937e-05   3.78741e-05   5.09959e-05   6.84346e-05   0.000102197   0.000148402   0.000249274   0.000414025   0.000938013   0.00464242    0.00616457    0.00611646   
10.2002       1.38157e-05   1.89418e-05   2.47068e-05   3.0634e-05    3.84294e-05   5.17057e-05   6.93021e-05   0.000103321   0.000149922   0.000251987   0.000419294   0.000968197   0.00465292    0.0061636     0.0060981    
10.2997       1.39359e-05   1.91608e-05   2.50396e-05   3.10714e-05   3.89823e-05   5.24124e-05   7.01632e-05   0.000104425   0.000151403   0.000254629   0.000424585   0.000999564   0.00466517    0.00616097    0.00607945   
10.3999       1.40517e-05   1.93777e-05   2.53731e-05   3.15119e-05   3.95403e-05   5.31251e-05   7.1028e-05    0.000105523   0.000152861   0.000257232   0.000429994   0.00103169    0.00467999    0.00616083    0.00607487   
10.4999       1.41592e-05   1.95875e-05   2.5701e-05    3.19476e-05   4.00944e-05   5.38332e-05   7.18846e-05   0.000106599   0.000154278   0.000259774   0.000435498   0.00106355    0.00469832    0.00616366    0.00607942   
10.6          1.42573e-05   1.97891e-05   2.6022e-05    3.23773e-05   4.06432e-05   5.45354e-05   7.27316e-05   0.00010765    0.000155647   0.000262245   0.000441097   0.00109438    0.00472218    0.00616739    0.00608436   
10.7          1.43463e-05   1.99824e-05   2.63361e-05   3.28012e-05   4.11865e-05   5.52312e-05   7.35673e-05   0.000108671   0.000156957   0.000264621   0.00044674    0.00112345    0.00475517    0.00616882    0.00609699   
10.8          1.44274e-05   2.0169e-05    2.66451e-05   3.32211e-05   4.17265e-05   5.59228e-05   7.43942e-05   0.000109663   0.000158204   0.000266886   0.000452379   0.00115025    0.0048026     0.0061655     0.00614277   
10.9          1.44977e-05   2.03455e-05   2.69449e-05   3.3632e-05    4.22578e-05   5.66048e-05   7.52077e-05   0.000110625   0.000159384   0.000269024   0.000457949   0.0011744     0.00487168    0.00615607    0.00624714   
11            1.45575e-05   2.05121e-05   2.72359e-05   3.40347e-05   4.27809e-05   5.72777e-05   7.60088e-05   0.000111559   0.0001605     0.000271026   0.000463384   0.00119564    0.00496107    0.00614184    0.00640037   
11.1          1.46098e-05   2.06722e-05   2.75217e-05   3.44334e-05   4.32999e-05   5.79446e-05   7.67991e-05   0.000112465   0.000161552   0.000272877   0.00046859    0.00121376    0.00506652    0.00612532    0.0065821    
11.1999       1.4654e-05    2.0825e-05    2.78014e-05   3.48262e-05   4.38124e-05   5.86023e-05   7.75751e-05   0.000113343   0.000162541   0.000274575   0.000473505   0.00122869    0.00519628    0.00612892    0.00675731   
11.2998       1.46874e-05   2.09675e-05   2.80712e-05   3.52088e-05   4.43134e-05   5.9245e-05    7.83312e-05   0.000114189   0.000163473   0.000276129   0.000478108   0.00124062    0.00534706    0.00616838    0.00688535   
11.4003       1.4708e-05    2.10978e-05   2.83296e-05   3.55795e-05   4.4801e-05    5.98705e-05   7.90657e-05   0.000115004   0.000164354   0.000277558   0.000482405   0.00124987    0.00550404    0.00623202    0.00694579   
11.5002       1.47174e-05   2.12168e-05   2.85762e-05   3.59371e-05   4.52726e-05   6.04744e-05   7.97714e-05   0.00011578    0.000165177   0.000278851   0.000486329   0.00125663    0.00563559    0.0063156     0.00693689   
11.5999       1.47141e-05   2.13228e-05   2.88096e-05   3.628e-05     4.57267e-05   6.10547e-05   8.04467e-05   0.000116516   0.000165944   0.00028002    0.000489894   0.0012613     0.00573022    0.00640888    0.00686742   
11.6999       1.47016e-05   2.14206e-05   2.90352e-05   3.66146e-05   4.61701e-05   6.16188e-05   8.10974e-05   0.000117213   0.000166656   0.000281065   0.000493095   0.00126422    0.00579682    0.00650117    0.00675948   
11.8002       1.46787e-05   2.15087e-05   2.92516e-05   3.69392e-05   4.6601e-05    6.21641e-05   8.17208e-05   0.000117869   0.000167311   0.000281987   0.000495932   0.00126569    0.00584309    0.0065868     0.00663693   
11.9          1.46438e-05   2.15842e-05   2.94543e-05   3.72477e-05   4.70116e-05   6.2682e-05    8.2308e-05    0.000118477   0.000167903   0.000282779   0.000498376   0.00126591    0.00587067    0.0066621     0.00651004   
11.9998       1.45973e-05   2.16482e-05   2.96448e-05   3.75425e-05   4.74055e-05   6.31757e-05   8.28622e-05   0.000119038   0.000168431   0.000283438   0.000500426   0.00126503    0.00588822    0.00672497    0.00638102   
12.1002       1.45424e-05   2.17054e-05   2.98295e-05   3.78311e-05   4.77909e-05   6.36553e-05   8.33928e-05   0.000119558   0.000168898   0.000283961   0.000502082   0.00126311    0.00589789    0.00676919    0.00631483   
12.1998       1.44786e-05   2.17531e-05   3.00034e-05   3.81064e-05   4.8159e-05    6.41101e-05   8.38891e-05   0.000120029   0.000169298   0.000284347   0.000503338   0.00126032    0.00589415    0.00679739    0.00640525   
12.3          1.44015e-05   2.1788e-05    3.01643e-05   3.83674e-05   4.85092e-05   6.45407e-05   8.43533e-05   0.000120457   0.000169641   0.000284618   0.000504257   0.0012568     0.00586695    0.0068069     0.00660355   
12.3998       1.43113e-05   2.18086e-05   3.03092e-05   3.86096e-05   4.8836e-05    6.49409e-05   8.47786e-05   0.000120834   0.000169923   0.000284779   0.000504865   0.0012528     0.00581885    0.00679464    0.00679226   
12.5          1.42084e-05   2.18168e-05   3.04414e-05   3.88379e-05   4.91469e-05   6.53177e-05   8.5172e-05    0.000121167   0.000170147   0.000284833   0.000505194   0.00124846    0.00576196    0.00676082    0.00693432   
12.6002       1.40916e-05   2.181e-05     3.05574e-05   3.90479e-05   4.94364e-05   6.5666e-05    8.55283e-05   0.00012145    0.00017031    0.000284783   0.000505265   0.00124405    0.00569904    0.00670177    0.00703511   
12.6999       1.39626e-05   2.17896e-05   3.06582e-05   3.92408e-05   4.97047e-05   6.59872e-05   8.58491e-05   0.000121685   0.000170409   0.000284625   0.000505081   0.00123978    0.00562935    0.00666883    0.00711263   
12.8001       1.38213e-05   2.17564e-05   3.07461e-05   3.94198e-05   4.99569e-05   6.6287e-05    8.61402e-05   0.000121875   0.000170444   0.000284347   0.000504627   0.0012357     0.00555955    0.00667814    0.0071742    
12.9002       1.36674e-05   2.17093e-05   3.0819e-05    3.95825e-05   5.01905e-05   6.65626e-05   8.63996e-05   0.00012202    0.000170416   0.000283951   0.000503893   0.00123187    0.00549486    0.00670831    0.00722707   
12.9999       1.35027e-05   2.16492e-05   3.08777e-05   3.97295e-05   5.04059e-05   6.68155e-05   8.66297e-05   0.000122124   0.00017033    0.000283441   0.000502889   0.00122825    0.00544292    0.00675478    0.00728503   
13.1          1.33285e-05   2.15791e-05   3.09265e-05   3.98666e-05   5.06103e-05   6.70537e-05   8.68391e-05   0.000122194   0.000170189   0.000282819   0.000501626   0.00122481    0.00541104    0.00681023    0.00737024   