# Probe 0 (0 0 0.95)
# Probe 1 (0.05 0 0.95)
# Probe 2 (0.1 0 0.95)
# Probe 3 (0.15 0 0.95)
# Probe 4 (0.2 0 0.95)
# Probe 5 (0.25 0 0.95)
# Probe 6 (0.3 0 0.95)
# Probe 7 (0.35 0 0.95)
# Probe 8 (0.4 0 0.95)
# Probe 9 (0.45 0 0.95)
# Time        0             1             2             3             4             5             6             7             8             9            
0.0998838     2.37376e-318  0             0             0             0             0             0             0             0             0            
0.199997      1.41346e-251  6.20508e-259  3.03367e-271  1.59116e-284  1.84668e-298  3.88096e-303  2.08738e-312  6.07701e-322  0             0            
0.300191      1.21731e-189  1.80202e-195  6.51398e-207  2.73662e-219  2.77079e-232  6.2228e-245   2.02909e-257  1.28118e-269  2.26277e-281  4.15003e-293 
0.400094      3.21829e-142  3.32073e-147  2.4202e-157   1.22446e-168  1.36697e-180  1.57801e-192  2.06473e-204  3.80606e-216  1.5208e-227   5.04308e-239 
0.500066      6.66786e-107  9.47985e-111  1.22547e-119  5.173e-130    2.86704e-141  1.21642e-152  5.72223e-164  3.81291e-175  5.59263e-186  6.89956e-197 
0.600149      9.66573e-81   2.14828e-84   3.97626e-92   1.02325e-101  1.35215e-112  1.20824e-123  1.00338e-134  1.15175e-145  3.56751e-156  1.19347e-166 
0.699729      2.85008e-60   1.44643e-63   7.15371e-71   4.07341e-80   7.09942e-91   8.95116e-102  7.94133e-113  7.83496e-124  2.1077e-134   1.00682e-144 
0.799912      9.30626e-43   3.51048e-45   3.06585e-52   3.56557e-61   1.6202e-71    3.59207e-82   2.50603e-93   1.54779e-104  1.59643e-115  4.15991e-126 
0.900111      1.22122e-27   5.08313e-30   5.05059e-36   1.13538e-44   1.24597e-54   6.13931e-65   5.08653e-76   2.46061e-87   2.52026e-98   3.55737e-109 
0.999753      1.83653e-15   2.02939e-17   5.77871e-23   6.16718e-31   4.12847e-40   5.62918e-50   1.76112e-60   1.49382e-71   9.21728e-83   5.79772e-94  
1.09997       2.04968e-06   1.76825e-07   6.6593e-12    1.35763e-19   7.07432e-28   6.64974e-37   7.9035e-47    1.90034e-57   1.39379e-68   1.76526e-80  
1.20019       0.00778176    0.00463435    0.000574993   6.89834e-07   4.79943e-15   3.47406e-24   7.78093e-34   3.24567e-44   3.37249e-55   2.6387e-67   
1.29984       0.0204688     0.0163807     0.00540805    0.000564752   8.73398e-06   1.9477e-12    6.78587e-21   2.4863e-30    2.07327e-41   1.213e-53    
1.40008       0.0200313     0.0155087     0.0104653     0.00254719    0.000220027   9.19609e-06   1.79018e-11   4.43642e-21   7.48115e-31   5.0234e-42   
1.49974       0.0196132     0.0143321     0.00943197    0.00513192    0.00093459    0.000102811   1.02936e-05   7.43976e-07   7.981e-17     3.23973e-29  
1.59998       0.0193598     0.0142127     0.0071542     0.00629137    0.00234568    0.000384311   5.43147e-05   9.2005e-06    1.90835e-06   2.84971e-13  
1.70024       0.0191647     0.0142886     0.00627006    0.00554564    0.00382979    0.00103479    0.000162801   3.0148e-05    7.38536e-06   2.11801e-06  
1.79996       0.0190724     0.014322      0.00659279    0.00455931    0.00433418    0.00203721    0.000407381   7.4692e-05    1.81023e-05   6.20997e-06  
1.90022       0.0191488     0.0143133     0.00705518    0.00377214    0.00420595    0.00287725    0.000853927   0.000161813   3.7927e-05    1.43225e-05  
1.99995       0.0194837     0.014376      0.00726905    0.00343661    0.00388809    0.00336514    0.00144781    0.000312507   7.00989e-05   2.68914e-05  
2.10023       0.0200502     0.0145451     0.00733488    0.00366557    0.00362819    0.00357348    0.00206289    0.000564895   0.000121907   4.51772e-05  
2.19997       0.0204372     0.0146929     0.00727403    0.00417745    0.00360607    0.00363985    0.0025677     0.000929393   0.000207613   7.23954e-05  
2.30019       0.0202999     0.0147397     0.00706978    0.00436427    0.00379623    0.00371107    0.00295522    0.00135872    0.00033437    0.000109194  
2.39996       0.0200139     0.0148221     0.00688392    0.00429041    0.00396434    0.00384283    0.00325074    0.00180541    0.000521108   0.000159146  
2.5002        0.0212024     0.0151179     0.00702518    0.00408999    0.00400311    0.00400383    0.00350352    0.00222543    0.000778414   0.000229867  
2.59989       0.0209702     0.0149235     0.00700305    0.00405966    0.00389389    0.00411539    0.00374493    0.002609      0.00109181    0.000327112  
2.70017       0.0196847     0.0148098     0.00653771    0.00415699    0.00378535    0.004117      0.00395996    0.00296453    0.00144703    0.000464673  
2.79986       0.0212338     0.0153554     0.0068501     0.00388794    0.00383889    0.00405219    0.00409358    0.00328666    0.00181906    0.000654737  
2.90008       0.0225144     0.0147274     0.00726954    0.00365354    0.0037382     0.00405402    0.00413709    0.0035672     0.0022015     0.000897176  
2.9998        0.0183431     0.0135818     0.00604657    0.0040914     0.00345894    0.00401715    0.00417271    0.00377068    0.00257652    0.0011939    
3.10001       0.0160121     0.0128748     0.00490409    0.00380308    0.00358509    0.00382286    0.00420049    0.00392605    0.00292445    0.00154422   
3.19972       0.0151049     0.0124473     0.00611395    0.00280921    0.00360422    0.00376132    0.00411159    0.00405988    0.00322297    0.00193178   
3.29993       0.0158343     0.0126195     0.00708573    0.00257126    0.00303362    0.00380776    0.00402125    0.00410944    0.00349184    0.00233698   
3.40019       0.0173908     0.0131235     0.00738949    0.0040149     0.0024002     0.00346831    0.00405154    0.00409752    0.00370821    0.00274367   
3.49988       0.0177205     0.0134271     0.00745407    0.0045198     0.00275887    0.00294761    0.00388131    0.00414613    0.00385036    0.0031348    
3.60012       0.0179381     0.0137439     0.00752516    0.00472551    0.00348121    0.0025681     0.00348351    0.00411788    0.0039847     0.0034944    
3.69978       0.0193852     0.0142575     0.00770362    0.00484684    0.00381095    0.00291623    0.00307006    0.00389239    0.00410716    0.00382232   
3.79998       0.019516      0.0144471     0.00766652    0.00495022    0.00402259    0.00339803    0.00278868    0.00356261    0.00409296    0.00414427   
3.9002        0.0195913     0.0145072     0.00745355    0.00496715    0.00417711    0.00371018    0.00301527    0.00323922    0.00394524    0.00441329   
3.99983       0.0194207     0.0144814     0.00722783    0.00480335    0.00427036    0.00393731    0.00343403    0.00299121    0.00372927    0.00457164   
4.09998       0.0197819     0.0146364     0.00716697    0.00451566    0.00424924    0.0040978     0.00373836    0.00307541    0.00349905    0.00461307   
4.20011       0.0206391     0.0146655     0.00718709    0.00427692    0.00409799    0.00418119    0.00396122    0.0034468     0.00329063    0.00456244   
4.30016       0.0194544     0.0141297     0.00677202    0.00418385    0.0038877     0.00415448    0.00412338    0.00374857    0.00324112    0.00442338   
4.40021       0.0182355     0.0137871     0.00611793    0.00396849    0.00375367    0.00403855    0.00420091    0.00397661    0.0034696     0.00422295   
4.50028       0.0176186     0.0135733     0.00611956    0.0033782     0.00364725    0.00392765    0.00418635    0.0041439     0.00377399    0.00402588   
4.6001        0.0178348     0.0136133     0.00656475    0.00282577    0.00330369    0.00386049    0.00413773    0.00423032    0.00402776    0.00395937   
4.69987       0.0179427     0.013564      0.00684247    0.00294779    0.00275938    0.00366969    0.00411498    0.00426269    0.00422291    0.00413363   
4.8002        0.0174671     0.0135575     0.0068622     0.00360126    0.00239526    0.00328405    0.00403463    0.00429936    0.00436134    0.00437808   
4.89985       0.0186205     0.0139326     0.00717345    0.00385631    0.00268845    0.00287747    0.0037975     0.00431841    0.00447581    0.00461012   
5.00005       0.0183495     0.0136934     0.00724916    0.00407467    0.0030948     0.00271037    0.00346206    0.00422466    0.00458795    0.00482144   
5.10023       0.0169207     0.0134058     0.00689867    0.00426991    0.00330641    0.00294358    0.00317113    0.00400945    0.00463986    0.00502523   
5.19984       0.0184942     0.0139791     0.00732933    0.00419046    0.0035195     0.00318383    0.00307002    0.00375132    0.00458371    0.00522027   
5.3001        0.0188392     0.0139115     0.00758866    0.00426782    0.0035829     0.00338704    0.00319494    0.00353137    0.00443556    0.00536451   
5.39974       0.0179163     0.0138687     0.00726166    0.00458448    0.00356994    0.00351477    0.00337769    0.00342039    0.00424952    0.00541758   
5.50016       0.0194116     0.0141389     0.00738384    0.00458241    0.00375526    0.00354343    0.00353833    0.00345441    0.00407105    0.00537172   
5.60018       0.0182693     0.0131164     0.00707272    0.00447489    0.00387896    0.00362435    0.00361963    0.00357706    0.00393848    0.00524971   
5.70023       0.0164366     0.0124338     0.00599872    0.00434606    0.00387837    0.0037524     0.00367298    0.00369557    0.00388499    0.00508001   
5.79981       0.0151297     0.0121804     0.0055611     0.00380363    0.00385954    0.00383895    0.00376858    0.00377072    0.00391767    0.00490036   
5.90002       0.014813      0.0122422     0.00651931    0.00304257    0.00363353    0.00390133    0.00388868    0.00384726    0.00398691    0.00475454   
6.00026       0.0154358     0.0127232     0.00742644    0.00330854    0.0030827     0.00385154    0.0040104     0.00395966    0.00405628    0.00466553   
6.10001       0.017016      0.0135669     0.00804504    0.00449985    0.00264931    0.00353692    0.00408774    0.00410209    0.00413996    0.00464134   
6.19979       0.0182667     0.0140835     0.00834104    0.00510333    0.00329228    0.00309686    0.0039701     0.00425847    0.00425885    0.00466262   
6.30021       0.0178102     0.0135919     0.0081325     0.00540469    0.00393392    0.00294748    0.00366958    0.00430534    0.00442591    0.00471713   
6.39995       0.016863      0.0126313     0.00732094    0.00542745    0.00430305    0.00342728    0.00334835    0.00418258    0.00458373    0.00481674   
6.49978       0.0160211     0.012223      0.00637007    0.00506163    0.00453122    0.00385437    0.00326543    0.00395868    0.00463539    0.00497594   
6.60019       0.0153953     0.0122398     0.00617767    0.00429772    0.00454114    0.00420438    0.0035736     0.00372558    0.00456617    0.00515383   
6.69992       0.0152147     0.0124502     0.00676859    0.00367128    0.00418574    0.00444307    0.00396757    0.00360422    0.00442469    0.00527092   
6.79974       0.0156355     0.012894      0.00753737    0.00386491    0.00362123    0.00438879    0.00434613    0.00378119    0.00425952    0.00529141   
6.90007       0.016782      0.0136263     0.00815649    0.00473657    0.00327645    0.0040538     0.00453478    0.00415729    0.00411436    0.00522151   
6.9999        0.0187573     0.0144542     0.00858808    0.0053276     0.00365813    0.00366452    0.0044521     0.00451003    0.00413189    0.00507889   
7.09974       0.0182812     0.0141634     0.00853837    0.00567005    0.00421649    0.00353513    0.00420249    0.00465611    0.00438442    0.0049008    
7.20008       0.0173084     0.0136613     0.00791676    0.0057414     0.00458549    0.00383116    0.00394463    0.00461053    0.00468002    0.00474027   
7.29992       0.0179278     0.0138427     0.00766813    0.00549208    0.00481731    0.00419195    0.00386979    0.00445866    0.00483498    0.00476648   
7.39977       0.0183398     0.0138981     0.00768441    0.00505669    0.00486937    0.00450672    0.0040523     0.00429375    0.00485747    0.00496171   
7.49998       0.0183497     0.0139737     0.00754254    0.00492512    0.0046819     0.0047391     0.0043505     0.00421154    0.00479316    0.00515833   
7.59978       0.0182793     0.0140424     0.00743045    0.004873      0.00451161    0.0047791     0.0046643     0.00431242    0.00469544    0.00527303   
7.70023       0.0183326     0.0142689     0.00751564    0.00469007    0.0044381     0.00471418    0.00487396    0.00456231    0.00461623    0.0053039    
7.79997       0.0201656     0.0147972     0.00787345    0.00461532    0.00430722    0.00466023    0.00494311    0.0048417     0.00463524    0.00526771   
7.90027       0.019512      0.0143932     0.00779644    0.00482702    0.00416167    0.00458317    0.00496109    0.00503754    0.00479304    0.00519359   
8.00005       0.0178576     0.014085      0.00709712    0.00493957    0.0041861     0.00445982    0.00494984    0.00515047    0.00501164    0.00512992   
8.09985       0.0179462     0.0139871     0.00722947    0.00458852    0.00434639    0.00438677    0.00488827    0.00521919    0.00520463    0.00515255   
8.20021       0.0173472     0.0137746     0.00744699    0.00418117    0.00428776    0.00445614    0.00480983    0.00523796    0.00535473    0.00528382   
8.29997       0.0175221     0.013899      0.00766503    0.00439015    0.00398269    0.00451013    0.00479793    0.00521232    0.00545906    0.00546033   
8.40018       0.0182401     0.0140136     0.00787317    0.00472877    0.00386207    0.00438317    0.00485924    0.005185      0.0055149     0.00564195   
8.49988       0.0175382     0.0135254     0.00766247    0.00495185    0.00403914    0.00421121    0.0048441     0.00520824    0.00553302    0.0057996    
8.60015       0.0170523     0.0134824     0.00733422    0.00495624    0.00427292    0.00417525    0.0047362     0.00523995    0.00554836    0.00591926   
8.69986       0.0183617     0.0138866     0.00762186    0.00475238    0.00442321    0.00430484    0.00463028    0.00521034    0.00558356    0.00600063   
8.80011       0.0177725     0.0135089     0.00765619    0.00474118    0.00439373    0.00448121    0.00460869    0.00513346    0.00560637    0.00606335   
8.89985       0.0165394     0.0130213     0.0072072     0.00493771    0.00430635    0.00457631    0.00469867    0.00505695    0.00558915    0.00612292   
8.99991       0.0163108     0.0131319     0.0071632     0.00481581    0.00439918    0.00456512    0.0048287     0.00502859    0.00553861    0.00616937   
9.1002        0.0175178     0.0136079     0.00769387    0.00457782    0.00444859    0.00459015    0.00489804    0.00507747    0.00547851    0.00618375   
9.19973       0.0176193     0.013728      0.00790426    0.00486861    0.00428965    0.00466496    0.00492865    0.00515783    0.00543907    0.00615941   
9.30002       0.0169156     0.0134361     0.00777468    0.00521697    0.00425641    0.00463307    0.00499006    0.00521549    0.00544287    0.00610468   
9.4002        0.0161375     0.0131355     0.00763381    0.00525076    0.00450823    0.0045341     0.00503253    0.00526676    0.00547788    0.00604247   
9.49982       0.0164548     0.013422      0.00792031    0.00515047    0.00468166    0.00457988    0.00499396    0.0053288     0.00551815    0.00600038   
9.59994       0.0182034     0.0139925     0.00837712    0.0052938     0.00470094    0.00474271    0.00494833    0.0053528     0.00556573    0.00598963   
9.70011       0.0177855     0.0140982     0.0084076     0.0056743     0.00470663    0.00485364    0.00499461    0.00533051    0.0056149     0.0060032    
9.79975       0.0187781     0.0144913     0.0084903     0.00585789    0.00490914    0.00487706    0.00510514    0.00530849    0.0056369     0.00603571   
9.89978       0.0190798     0.0145904     0.00847084    0.00591874    0.00512866    0.00494639    0.00517897    0.00533787    0.00562834    0.00607967   
10            0.0194112     0.0146965     0.00828415    0.00591107    0.00527449    0.00510271    0.00521574    0.00540315    0.00561277    0.00611221   
10.1001       0.0197888     0.0146288     0.00810932    0.00579443    0.00536852    0.00527963    0.0052886     0.00545182    0.00561876    0.00611646   
10.2002       0.0187191     0.0141882     0.00774106    0.00559286    0.00538503    0.00543842    0.00542513    0.0054879     0.00564711    0.0060981    
10.2997       0.0173682     0.0135747     0.00723626    0.00529651    0.00531879    0.00554977    0.00559315    0.00555308    0.00567556    0.00607945   
10.3999       0.0159829     0.013094      0.00689061    0.00485426    0.00516894    0.00560065    0.00575543    0.0056718     0.00570189    0.00607487   
10.4999       0.0153961     0.0128385     0.00717634    0.00441554    0.00489852    0.00557684    0.00588709    0.00582751    0.00575006    0.00607942   
10.6          0.0148817     0.0125409     0.00766335    0.0043005     0.00453631    0.00545297    0.00596711    0.00599174    0.005844      0.00608436   
10.7          0.0147065     0.012489      0.0080368     0.00483473    0.00420321    0.00522523    0.00597017    0.00613913    0.00598135    0.00609699   
10.8          0.0154357     0.0129105     0.00843927    0.00551698    0.00415573    0.00494908    0.00587429    0.00623961    0.00614462    0.00614277   
10.9          0.0166659     0.0135125     0.00877428    0.00602466    0.00460721    0.00470201    0.00569981    0.00626364    0.00630864    0.00624714   
11            0.0174741     0.0140936     0.00899955    0.00637782    0.00512979    0.00461924    0.00549723    0.00620185    0.00643397    0.00640037   
11.1          0.01986       0.0150273     0.00932139    0.00664109    0.00551113    0.00490228    0.00531077    0.00608105    0.0064913     0.0065821    
11.1999       0.0206971     0.0151905     0.00932188    0.00686667    0.00580838    0.0052807     0.00518323    0.00593958    0.00647449    0.00675731   
11.2998       0.0185242     0.0143655     0.00853679    0.0069184     0.0060676     0.00559659    0.00527615    0.00580454    0.00640264    0.00688535   
11.4003       0.0171331     0.0140423     0.00779084    0.00660773    0.00626107    0.00588709    0.00553429    0.00568752    0.00630479    0.00694579   
11.5002       0.0180394     0.0143816     0.00834092    0.00599159    0.00627843    0.00616055    0.00581364    0.00563247    0.00620377    0.00693689   
11.5999       0.018483      0.0144625     0.00869195    0.00584307    0.00597975    0.00636335    0.00610794    0.00574232    0.00610792    0.00686742   
11.6999       0.0175356     0.0142207     0.00852949    0.00621514    0.0056538     0.00633022    0.006412      0.0059759     0.00602311    0.00675948   
11.8002       0.0179039     0.0144354     0.00866607    0.00625895    0.00573709    0.00611477    0.00657669    0.00627103    0.00598588    0.00663693   
11.9          0.0188152     0.0147553     0.00894314    0.00624588    0.00585168    0.00601123    0.00654471    0.00654525    0.00609872    0.00651004   
11.9998       0.0190169     0.0149381     0.00901955    0.00641944    0.00586612    0.00604901    0.00645011    0.0066788     0.00633753    0.00638102   
12.1002       0.0199042     0.0152508     0.00904635    0.0065739     0.00593924    0.0060888     0.00641283    0.00669916    0.00657295    0.00631483   
12.1998       0.0210169     0.015276      0.00890648    0.0066087     0.00607451    0.00612654    0.00642777    0.0066849     0.00672475    0.00640525   
12.3          0.0186273     0.0144719     0.008203      0.0064992     0.00617475    0.00620875    0.00644908    0.00668741    0.00679835    0.00660355   
12.3998       0.0180686     0.0144483     0.00780777    0.00613486    0.00621018    0.0063182     0.00648658    0.00670264    0.00684053    0.00679226   
12.5          0.018694      0.0144034     0.00826379    0.00559044    0.0061122     0.00642466    0.00656369    0.00672281    0.00687425    0.00693432   
12.6002       0.0172851     0.0138489     0.008138      0.00549966    0.0057798     0.0064683     0.00667631    0.00676344    0.00690363    0.00703511   
12.6999       0.0163479     0.0136583     0.00804384    0.00572378    0.00545119    0.00634228    0.00679134    0.00684273    0.00693409    0.00711263   
12.8001       0.0173505     0.0141452     0.00869979    0.00568552    0.00547671    0.00610388    0.00680732    0.00696463    0.00698164    0.0071742    
12.9002       0.0185189     0.0147202     0.00915522    0.00608173    0.00549589    0.00595624    0.00669468    0.0070632     0.00706623    0.00722707   
12.9999       0.0205727     0.0152484     0.00935963    0.0066185     0.00555277    0.00591452    0.00655153    0.00706611    0.00718324    0.00728503   
13.1          0.0195215     0.0147414     0.00905705    0.00688061    0.00593422    0.00586557    0.00644854    0.00699444    0.00727162    0.00737024   
13.2          0.0180433     0.0143005     0.00829153    0.00685451    0.00627045    0.00595702    0.00636756    0.00690506    0.00729426    0.0074863    
13.3001       0.0179718     0.0143012     0.00818612    0.00649291    0.00647446    0.00622447    0.00630145    0.00682088    0.00726606    0.00759823   
13.4001       0.0183138     0.0143072     0.00845562    0.00607244    0.00646581    0.00651282    0.00634583    0.00673796    0.00721395    0.0076726    
13.5002       0.0172435     0.0138933     0.00832357    0.00610075    0.00622893    0.0066985     0.00655277    0.00666577    0.00714959    0.00770311   
13.6002       0.0164469     0.0136675     0.00818808    0.00616137    0.00607062    0.00668039    0.00681448    0.00665905    0.00707758    0.00769533   
13.7003       0.0168462     0.014089      0.00872785    0.00603077    0.00608569    0.00657008    0.00694673    0.00680292    0.00700692    0.00765445   
13.8001       0.0201287     0.0150108     0.00942811    0.00629727    0.00602804    0.00651614    0.00694533    0.00700385    0.00696501    0.00758417   
13.9          0.0195216     0.0149497     0.00934669    0.00687771    0.0059937     0.00648178    0.0069053     0.00710324    0.00702415    0.00749416   
14            0.0187907     0.0146703     0.00872516    0.00703077    0.00629294    0.00640642    0.00687391    0.00712747    0.00715046    0.00740557   
14.0998       0.0191485     0.0144816     0.00838191    0.00683258    0.00656807    0.0064337     0.00682227    0.00712388    0.00724727    0.00737761   
14.1997       0.017622      0.0139651     0.00799548    0.00638132    0.00666926    0.00663371    0.00676112    0.00710293    0.00729774    0.00743403   
14.3          0.0165164     0.0137781     0.00796531    0.0059501     0.00654197    0.00684855    0.00679044    0.00705745    0.00731994    0.00752828   
14.3998       0.0176496     0.0143555     0.00880826    0.00572343    0.0062811     0.00693231    0.00696023    0.00701261    0.00731659    0.00760985   
14.5001       0.0200439     0.0151481     0.00934467    0.00628319    0.00598541    0.00685844    0.00714334    0.00704125    0.00728965    0.00766533   
14.5999       0.0204256     0.0152885     0.00927405    0.00687548    0.00593141    0.00668203    0.00720935    0.00718138    0.00725812    0.00769123   
14.7002       0.0195793     0.0146008     0.0086532     0.007012      0.00634248    0.00648092    0.00715499    0.00732772    0.00727032    0.00768654   
14.7999       0.0176574     0.0140123     0.00765239    0.00678422    0.00663071    0.00649178    0.00702186    0.00738109    0.00736749    0.00766005   
14.9002       0.0172738     0.0139339     0.00766131    0.00611966    0.0067454     0.00672002    0.00689206    0.00734571    0.00748366    0.00764256   
14.9998       0.0176037     0.0139768     0.00819463    0.00553411    0.00657017    0.00695847    0.00689925    0.0072577     0.00754412    0.00768166   
15.1          0.0171632     0.0137477     0.00832235    0.00569202    0.00615036    0.0070276     0.00709144    0.00717428    0.00754193    0.00777327   
15.2002       0.0161843     0.0134732     0.00826039    0.00609106    0.00584479    0.00684801    0.00728496    0.0071922     0.00749718    0.00785878   
15.2997       0.016788      0.0139489     0.00879816    0.00616583    0.00597292    0.00659694    0.00729011    0.00735391    0.00744733    0.00790259   
15.3999       0.0214217     0.0151917     0.00945833    0.00653295    0.006095      0.00646326    0.00715506    0.00747705    0.00745826    0.00790001   
15.5          0.0212956     0.015354      0.00942577    0.00704374    0.00621562    0.00647181    0.00700562    0.00747287    0.00756544    0.00786779   
15.6001       0.0187976     0.0143943     0.00843353    0.00718847    0.00652565    0.00649729    0.00691269    0.00739397    0.00765396    0.00785113   
15.7001       0.0172796     0.0139618     0.00744978    0.00691257    0.00677432    0.00662015    0.00686839    0.00730414    0.00767387    0.00789764   
15.7997       0.017354      0.0140925     0.00805088    0.00614418    0.00687062    0.00684335    0.00686077    0.00723195    0.0076445     0.00797409   
15.9002       0.0182733     0.0144234     0.00873587    0.0057724     0.00659865    0.00708549    0.00696387    0.00717612    0.00759611    0.00802722   
16.0002       0.0190181     0.0147302     0.00893488    0.00637648    0.00616436    0.00709342    0.00720318    0.00715103    0.00754529    0.0080397    
16.1003       0.0196072     0.0147261     0.00885944    0.00672649    0.00617657    0.0068605     0.0073768     0.00724095    0.00749631    0.00801974   
16.1998       0.0187026     0.0144526     0.00839609    0.00678243    0.00646553    0.00667242    0.00733785    0.00744299    0.00746127    0.00797958   
16.3002       0.018297      0.0142072     0.00807974    0.00657298    0.00665683    0.00672059    0.00719869    0.00755138    0.0075018     0.00792579   
16.4003       0.0174527     0.0141523     0.00805976    0.00617561    0.00669507    0.00689426    0.00710473    0.00753529    0.0076284     0.0078669    
16.5001       0.0195389     0.0147232     0.00868519    0.00591735    0.0065485     0.00703924    0.00714328    0.00746773    0.0077189     0.00783884   
16.6          0.0199827     0.0147703     0.00879953    0.00626684    0.00631002    0.00705829    0.00727893    0.00742232    0.00774077    0.00788259   
16.7          0.0197149     0.0144194     0.00831654    0.00663295    0.00623945    0.00695401    0.00738936    0.00745606    0.007723      0.0079617    
16.7999       0.0177912     0.0137273     0.00758009    0.00657321    0.00648224    0.00682591    0.00740045    0.00755931    0.00770576    0.0080196    
16.8998       0.0164823     0.0134451     0.00735128    0.00612371    0.00665373    0.00683775    0.00733491    0.00764147    0.00772893    0.00804062   
17.0003       0.0162765     0.0136424     0.00814706    0.00561764    0.00658161    0.00699775    0.00727454    0.00765978    0.00779808    0.00803889   
17.1001       0.0192311     0.0144858     0.00908576    0.00585376    0.00628229    0.0070874     0.00732267    0.00763428    0.00786426    0.00804412   
17.2          0.0194261     0.0141048     0.00912755    0.00677331    0.00598724    0.00698159    0.00744993    0.00762161    0.00789621    0.00808153   
17.2999       0.0163483     0.0127494     0.00812545    0.00704525    0.00630588    0.00677096    0.00747629    0.00768627    0.00790089    0.00813922   
17.4003       0.0144229     0.0121795     0.00705747    0.00683623    0.00666937    0.00662121    0.00737806    0.00776747    0.00791341    0.00818884   
17.5002       0.0141568     0.0123078     0.00794741    0.00619371    0.00679932    0.0067799     0.00723645    0.00777257    0.007967      0.00821797   
17.5999       0.015665      0.0131763     0.00895183    0.00615772    0.0066064     0.00701043    0.00713682    0.00771014    0.00802149    0.00824052   
17.6998       0.0185202     0.0143953     0.00949526    0.00694799    0.00623705    0.00706866    0.0072153     0.00762409    0.00803313    0.00828213   
17.8002       0.0192233     0.0149274     0.00968089    0.00736044    0.00643096    0.00689188    0.00736723    0.0075561     0.00800215    0.00833528   
17.9001       0.019617      0.0150125     0.00955401    0.00756199    0.00674119    0.00671525    0.00737386    0.00757972    0.0079517     0.00836732   
17.9999       0.0197848     0.0148345     0.0091466     0.00759756    0.00698529    0.00679331    0.00726651    0.00764573    0.00790481    0.0083616    
18.1003       0.0193049     0.014927      0.00859741    0.00737779    0.00718987    0.0069855     0.00715627    0.0076492     0.00789213    0.00831538   
18.2          0.0210037     0.0150984     0.00859147    0.00696635    0.00725979    0.00723583    0.00717504    0.00759787    0.00790594    0.00825295   
18.2999       0.0191758     0.0143763     0.00818338    0.00664537    0.00712474    0.00745789    0.00734358    0.00752946    0.00790885    0.00820223   
18.3998       0.0177702     0.0140712     0.00753901    0.00642646    0.00690423    0.00752784    0.0075959     0.00751449    0.00788938    0.00818436   
18.5002       0.0176842     0.0141889     0.00788429    0.00592619    0.00674671    0.00746377    0.0078024     0.00764276    0.00785341    0.0081729    
18.6001       0.0182466     0.0143035     0.00850169    0.0056099     0.00648981    0.00737589    0.00788448    0.00785708    0.00781869    0.00815075   
18.7          0.018668      0.0146068     0.00871546    0.00613222    0.00611248    0.00723918    0.00789813    0.00803936    0.0078656     0.00810846   
18.7999       0.0204477     0.0146261     0.00887862    0.00657937    0.00600802    0.00699628    0.00786658    0.00815154    0.00800958    0.00805484   
18.8998       0.0177089     0.0130497     0.00809314    0.00675809    0.00632909    0.00675409    0.00774421    0.00821764    0.00817489    0.00802365   
18.9998       0.0153522     0.0124511     0.00676568    0.00658403    0.00658701    0.00669577    0.00756186    0.00821011    0.00831508    0.00807683   
19.0998       0.0143196     0.0122828     0.00709473    0.00591848    0.00669575    0.00685208    0.00739578    0.00812719    0.00840363    0.00821395   
19.1998       0.0150458     0.0128012     0.00840195    0.00539429    0.0064963     0.00704844    0.00732538    0.00801004    0.0084278     0.00837699   